(written by ASE)

1296 atoms
2 atom types

0.0      49.050003779999997  xlo xhi
0.0      49.050003779999997  ylo yhi
0.0             20.90000161  zlo zhi

Atoms # atomic

     1   1                       0                       0                       0
     2   1      1.3624999999999998      1.3624999999999998                  1.3625
     3   1      2.7249999999999996      2.7249999999999996                       0
     4   1      4.0874999999999986      4.0874999999999986                  1.3625
     5   1      2.7249999999999996                       0      2.7250000000000001
     6   1      4.0874999999999986      1.3624999999999998      4.0875000000000004
     7   1                       0      2.7249999999999996      2.7250000000000001
     8   1      1.3624999999999998      4.0874999999999986      4.0875000000000004
     9   1                       0                       0      5.4500000000000002
    10   1      1.3624999999999998      1.3624999999999998                  6.8125
    11   1      2.7249999999999996      2.7249999999999996      5.4500000000000002
    12   1      4.0874999999999986      4.0874999999999986                  6.8125
    13   1      2.7249999999999996                       0      8.1750000000000007
    14   1      4.0874999999999986      1.3624999999999998      9.5374999999999996
    15   1                       0      2.7249999999999996      8.1750000000000007
    16   1      1.3624999999999998      4.0874999999999986      9.5374999999999996
    17   1                       0      5.4499999999999993                       0
    18   1      1.3624999999999998      6.8124999999999991                  1.3625
    19   1      2.7249999999999996      8.1749999999999972                       0
    20   1      4.0874999999999986      9.5374999999999979                  1.3625
    21   1      2.7249999999999996      5.4499999999999993      2.7250000000000001
    22   1      4.0874999999999986      6.8124999999999991      4.0875000000000004
    23   1                       0      8.1749999999999972      2.7250000000000001
    24   1      1.3624999999999998      9.5374999999999979      4.0875000000000004
    25   1                       0      5.4499999999999993      5.4500000000000002
    26   1      1.3624999999999998      6.8124999999999991                  6.8125
    27   1      2.7249999999999996      8.1749999999999972      5.4500000000000002
    28   1      4.0874999999999986      9.5374999999999979                  6.8125
    29   1      2.7249999999999996      5.4499999999999993      8.1750000000000007
    30   1      4.0874999999999986      6.8124999999999991      9.5374999999999996
    31   1                       0      8.1749999999999972      8.1750000000000007
    32   1      1.3624999999999998      9.5374999999999979      9.5374999999999996
    33   1                       0      10.899999999999999                       0
    34   1      1.3624999999999998      12.262499999999996                  1.3625
    35   1      2.7249999999999996      13.624999999999998                       0
    36   1      4.0874999999999986      14.987499999999997                  1.3625
    37   1      2.7249999999999996      10.899999999999999      2.7250000000000001
    38   1      4.0874999999999986      12.262499999999996      4.0875000000000004
    39   1                       0      13.624999999999998      2.7250000000000001
    40   1      1.3624999999999998      14.987499999999997      4.0875000000000004
    41   1                       0      10.899999999999999      5.4500000000000002
    42   1      1.3624999999999998      12.262499999999996                  6.8125
    43   1      2.7249999999999996      13.624999999999998      5.4500000000000002
    44   1      4.0874999999999986      14.987499999999997                  6.8125
    45   1      2.7249999999999996      10.899999999999999      8.1750000000000007
    46   1      4.0874999999999986      12.262499999999996      9.5374999999999996
    47   1                       0      13.624999999999998      8.1750000000000007
    48   1      1.3624999999999998      14.987499999999997      9.5374999999999996
    49   1      5.4499999999999993                       0                       0
    50   1      6.8124999999999991      1.3624999999999998                  1.3625
    51   1      8.1749999999999972      2.7249999999999996                       0
    52   1      9.5374999999999979      4.0874999999999986                  1.3625
    53   1      8.1749999999999972                       0      2.7250000000000001
    54   1      9.5374999999999979      1.3624999999999998      4.0875000000000004
    55   1      5.4499999999999993      2.7249999999999996      2.7250000000000001
    56   1      6.8124999999999991      4.0874999999999986      4.0875000000000004
    57   1      5.4499999999999993                       0      5.4500000000000002
    58   1      6.8124999999999991      1.3624999999999998                  6.8125
    59   1      8.1749999999999972      2.7249999999999996      5.4500000000000002
    60   1      9.5374999999999979      4.0874999999999986                  6.8125
    61   1      8.1749999999999972                       0      8.1750000000000007
    62   1      9.5374999999999979      1.3624999999999998      9.5374999999999996
    63   1      5.4499999999999993      2.7249999999999996      8.1750000000000007
    64   1      6.8124999999999991      4.0874999999999986      9.5374999999999996
    65   1      5.4499999999999993      5.4499999999999993                       0
    66   1      6.8124999999999991      6.8124999999999991                  1.3625
    67   1      8.1749999999999972      8.1749999999999972                       0
    68   1      9.5374999999999979      9.5374999999999979                  1.3625
    69   1      8.1749999999999972      5.4499999999999993      2.7250000000000001
    70   1      9.5374999999999979      6.8124999999999991      4.0875000000000004
    71   1      5.4499999999999993      8.1749999999999972      2.7250000000000001
    72   1      6.8124999999999991      9.5374999999999979      4.0875000000000004
    73   1      5.4499999999999993      5.4499999999999993      5.4500000000000002
    74   1      6.8124999999999991      6.8124999999999991                  6.8125
    75   1      8.1749999999999972      8.1749999999999972      5.4500000000000002
    76   1      9.5374999999999979      9.5374999999999979                  6.8125
    77   1      8.1749999999999972      5.4499999999999993      8.1750000000000007
    78   1      9.5374999999999979      6.8124999999999991      9.5374999999999996
    79   1      5.4499999999999993      8.1749999999999972      8.1750000000000007
    80   1      6.8124999999999991      9.5374999999999979      9.5374999999999996
    81   1      5.4499999999999993      10.899999999999999                       0
    82   1      6.8124999999999991      12.262499999999996                  1.3625
    83   1      8.1749999999999972      13.624999999999998                       0
    84   1      9.5374999999999979      14.987499999999997                  1.3625
    85   1      8.1749999999999972      10.899999999999999      2.7250000000000001
    86   1      9.5374999999999979      12.262499999999996      4.0875000000000004
    87   1      5.4499999999999993      13.624999999999998      2.7250000000000001
    88   1      6.8124999999999991      14.987499999999997      4.0875000000000004
    89   1      5.4499999999999993      10.899999999999999      5.4500000000000002
    90   1      6.8124999999999991      12.262499999999996                  6.8125
    91   1      8.1749999999999972      13.624999999999998      5.4500000000000002
    92   1      9.5374999999999979      14.987499999999997                  6.8125
    93   1      8.1749999999999972      10.899999999999999      8.1750000000000007
    94   1      9.5374999999999979      12.262499999999996      9.5374999999999996
    95   1      5.4499999999999993      13.624999999999998      8.1750000000000007
    96   1      6.8124999999999991      14.987499999999997      9.5374999999999996
    97   1      10.899999999999999                       0                       0
    98   1      12.262499999999996      1.3624999999999998                  1.3625
    99   1      13.624999999999998      2.7249999999999996                       0
   100   1      14.987499999999997      4.0874999999999986                  1.3625
   101   1      13.624999999999998                       0      2.7250000000000001
   102   1      14.987499999999997      1.3624999999999998      4.0875000000000004
   103   1      10.899999999999999      2.7249999999999996      2.7250000000000001
   104   1      12.262499999999996      4.0874999999999986      4.0875000000000004
   105   1      10.899999999999999                       0      5.4500000000000002
   106   1      12.262499999999996      1.3624999999999998                  6.8125
   107   1      13.624999999999998      2.7249999999999996      5.4500000000000002
   108   1      14.987499999999997      4.0874999999999986                  6.8125
   109   1      13.624999999999998                       0      8.1750000000000007
   110   1      14.987499999999997      1.3624999999999998      9.5374999999999996
   111   1      10.899999999999999      2.7249999999999996      8.1750000000000007
   112   1      12.262499999999996      4.0874999999999986      9.5374999999999996
   113   1      10.899999999999999      5.4499999999999993                       0
   114   1      12.262499999999996      6.8124999999999991                  1.3625
   115   1      13.624999999999998      8.1749999999999972                       0
   116   1      14.987499999999997      9.5374999999999979                  1.3625
   117   1      13.624999999999998      5.4499999999999993      2.7250000000000001
   118   1      14.987499999999997      6.8124999999999991      4.0875000000000004
   119   1      10.899999999999999      8.1749999999999972      2.7250000000000001
   120   1      12.262499999999996      9.5374999999999979      4.0875000000000004
   121   1      10.899999999999999      5.4499999999999993      5.4500000000000002
   122   1      12.262499999999996      6.8124999999999991                  6.8125
   123   1      13.624999999999998      8.1749999999999972      5.4500000000000002
   124   1      14.987499999999997      9.5374999999999979                  6.8125
   125   1      13.624999999999998      5.4499999999999993      8.1750000000000007
   126   1      14.987499999999997      6.8124999999999991      9.5374999999999996
   127   1      10.899999999999999      8.1749999999999972      8.1750000000000007
   128   1      12.262499999999996      9.5374999999999979      9.5374999999999996
   129   1      10.899999999999999      10.899999999999999                       0
   130   1      12.262499999999996      12.262499999999996                  1.3625
   131   1      13.624999999999998      13.624999999999998                       0
   132   1      14.987499999999997      14.987499999999997                  1.3625
   133   1      13.624999999999998      10.899999999999999      2.7250000000000001
   134   1      14.987499999999997      12.262499999999996      4.0875000000000004
   135   1      10.899999999999999      13.624999999999998      2.7250000000000001
   136   1      12.262499999999996      14.987499999999997      4.0875000000000004
   137   1      10.899999999999999      10.899999999999999      5.4500000000000002
   138   1      12.262499999999996      12.262499999999996                  6.8125
   139   1      13.624999999999998      13.624999999999998      5.4500000000000002
   140   1      14.987499999999997      14.987499999999997                  6.8125
   141   1      13.624999999999998      10.899999999999999      8.1750000000000007
   142   1      14.987499999999997      12.262499999999996      9.5374999999999996
   143   1      10.899999999999999      13.624999999999998      8.1750000000000007
   144   1      12.262499999999996      14.987499999999997      9.5374999999999996
   145   1                       0      16.350001259999996                       0
   146   1      1.3624999999999998      17.712501259999993                  1.3625
   147   1      2.7249999999999996      19.075001259999997                       0
   148   1      4.0874999999999986      20.437501259999994                  1.3625
   149   1      2.7249999999999996      16.350001259999996      2.7250000000000001
   150   1      4.0874999999999986      17.712501259999993      4.0875000000000004
   151   1                       0      19.075001259999997      2.7250000000000001
   152   1      1.3624999999999998      20.437501259999994      4.0875000000000004
   153   1                       0      16.350001259999996      5.4500000000000002
   154   1      1.3624999999999998      17.712501259999993                  6.8125
   155   1      2.7249999999999996      19.075001259999997      5.4500000000000002
   156   1      4.0874999999999986      20.437501259999994                  6.8125
   157   1      2.7249999999999996      16.350001259999996      8.1750000000000007
   158   1      4.0874999999999986      17.712501259999993      9.5374999999999996
   159   1                       0      19.075001259999997      8.1750000000000007
   160   1      1.3624999999999998      20.437501259999994      9.5374999999999996
   161   1                       0      21.800001259999991                       0
   162   1      1.3624999999999998      23.162501259999996                  1.3625
   163   1      2.7249999999999996      24.525001259999993                       0
   164   1      4.0874999999999986      25.887501259999993                  1.3625
   165   1      2.7249999999999996      21.800001259999991      2.7250000000000001
   166   1      4.0874999999999986      23.162501259999996      4.0875000000000004
   167   1                       0      24.525001259999993      2.7250000000000001
   168   1      1.3624999999999998      25.887501259999993      4.0875000000000004
   169   1                       0      21.800001259999991      5.4500000000000002
   170   1      1.3624999999999998      23.162501259999996                  6.8125
   171   1      2.7249999999999996      24.525001259999993      5.4500000000000002
   172   1      4.0874999999999986      25.887501259999993                  6.8125
   173   1      2.7249999999999996      21.800001259999991      8.1750000000000007
   174   1      4.0874999999999986      23.162501259999996      9.5374999999999996
   175   1                       0      24.525001259999993      8.1750000000000007
   176   1      1.3624999999999998      25.887501259999993      9.5374999999999996
   177   1                       0      27.250001259999994                       0
   178   1      1.3624999999999998      28.612501259999991                  1.3625
   179   1      2.7249999999999996      29.975001259999992                       0
   180   1      4.0874999999999986      31.337501259999993                  1.3625
   181   1      2.7249999999999996      27.250001259999994      2.7250000000000001
   182   1      4.0874999999999986      28.612501259999991      4.0875000000000004
   183   1                       0      29.975001259999992      2.7250000000000001
   184   1      1.3624999999999998      31.337501259999993      4.0875000000000004
   185   1                       0      27.250001259999994      5.4500000000000002
   186   1      1.3624999999999998      28.612501259999991                  6.8125
   187   1      2.7249999999999996      29.975001259999992      5.4500000000000002
   188   1      4.0874999999999986      31.337501259999993                  6.8125
   189   1      2.7249999999999996      27.250001259999994      8.1750000000000007
   190   1      4.0874999999999986      28.612501259999991      9.5374999999999996
   191   1                       0      29.975001259999992      8.1750000000000007
   192   1      1.3624999999999998      31.337501259999993      9.5374999999999996
   193   1      5.4499999999999993      16.350001259999996                       0
   194   1      6.8124999999999991      17.712501259999993                  1.3625
   195   1      8.1749999999999972      19.075001259999997                       0
   196   1      9.5374999999999979      20.437501259999994                  1.3625
   197   1      8.1749999999999972      16.350001259999996      2.7250000000000001
   198   1      9.5374999999999979      17.712501259999993      4.0875000000000004
   199   1      5.4499999999999993      19.075001259999997      2.7250000000000001
   200   1      6.8124999999999991      20.437501259999994      4.0875000000000004
   201   1      5.4499999999999993      16.350001259999996      5.4500000000000002
   202   1      6.8124999999999991      17.712501259999993                  6.8125
   203   1      8.1749999999999972      19.075001259999997      5.4500000000000002
   204   1      9.5374999999999979      20.437501259999994                  6.8125
   205   1      8.1749999999999972      16.350001259999996      8.1750000000000007
   206   1      9.5374999999999979      17.712501259999993      9.5374999999999996
   207   1      5.4499999999999993      19.075001259999997      8.1750000000000007
   208   1      6.8124999999999991      20.437501259999994      9.5374999999999996
   209   1      5.4499999999999993      21.800001259999991                       0
   210   1      6.8124999999999991      23.162501259999996                  1.3625
   211   1      8.1749999999999972      24.525001259999993                       0
   212   1      9.5374999999999979      25.887501259999993                  1.3625
   213   1      8.1749999999999972      21.800001259999991      2.7250000000000001
   214   1      9.5374999999999979      23.162501259999996      4.0875000000000004
   215   1      5.4499999999999993      24.525001259999993      2.7250000000000001
   216   1      6.8124999999999991      25.887501259999993      4.0875000000000004
   217   1      5.4499999999999993      21.800001259999991      5.4500000000000002
   218   1      6.8124999999999991      23.162501259999996                  6.8125
   219   1      8.1749999999999972      24.525001259999993      5.4500000000000002
   220   1      9.5374999999999979      25.887501259999993                  6.8125
   221   1      8.1749999999999972      21.800001259999991      8.1750000000000007
   222   1      9.5374999999999979      23.162501259999996      9.5374999999999996
   223   1      5.4499999999999993      24.525001259999993      8.1750000000000007
   224   1      6.8124999999999991      25.887501259999993      9.5374999999999996
   225   1      5.4499999999999993      27.250001259999994                       0
   226   1      6.8124999999999991      28.612501259999991                  1.3625
   227   1      8.1749999999999972      29.975001259999992                       0
   228   1      9.5374999999999979      31.337501259999993                  1.3625
   229   1      8.1749999999999972      27.250001259999994      2.7250000000000001
   230   1      9.5374999999999979      28.612501259999991      4.0875000000000004
   231   1      5.4499999999999993      29.975001259999992      2.7250000000000001
   232   1      6.8124999999999991      31.337501259999993      4.0875000000000004
   233   1      5.4499999999999993      27.250001259999994      5.4500000000000002
   234   1      6.8124999999999991      28.612501259999991                  6.8125
   235   1      8.1749999999999972      29.975001259999992      5.4500000000000002
   236   1      9.5374999999999979      31.337501259999993                  6.8125
   237   1      8.1749999999999972      27.250001259999994      8.1750000000000007
   238   1      9.5374999999999979      28.612501259999991      9.5374999999999996
   239   1      5.4499999999999993      29.975001259999992      8.1750000000000007
   240   1      6.8124999999999991      31.337501259999993      9.5374999999999996
   241   1      10.899999999999999      16.350001259999996                       0
   242   1      12.262499999999996      17.712501259999993                  1.3625
   243   1      13.624999999999998      19.075001259999997                       0
   244   1      14.987499999999997      20.437501259999994                  1.3625
   245   1      13.624999999999998      16.350001259999996      2.7250000000000001
   246   1      14.987499999999997      17.712501259999993      4.0875000000000004
   247   1      10.899999999999999      19.075001259999997      2.7250000000000001
   248   1      12.262499999999996      20.437501259999994      4.0875000000000004
   249   1      10.899999999999999      16.350001259999996      5.4500000000000002
   250   1      12.262499999999996      17.712501259999993                  6.8125
   251   1      13.624999999999998      19.075001259999997      5.4500000000000002
   252   1      14.987499999999997      20.437501259999994                  6.8125
   253   1      13.624999999999998      16.350001259999996      8.1750000000000007
   254   1      14.987499999999997      17.712501259999993      9.5374999999999996
   255   1      10.899999999999999      19.075001259999997      8.1750000000000007
   256   1      12.262499999999996      20.437501259999994      9.5374999999999996
   257   1      10.899999999999999      21.800001259999991                       0
   258   1      12.262499999999996      23.162501259999996                  1.3625
   259   1      13.624999999999998      24.525001259999993                       0
   260   1      14.987499999999997      25.887501259999993                  1.3625
   261   1      13.624999999999998      21.800001259999991      2.7250000000000001
   262   1      14.987499999999997      23.162501259999996      4.0875000000000004
   263   1      10.899999999999999      24.525001259999993      2.7250000000000001
   264   1      12.262499999999996      25.887501259999993      4.0875000000000004
   265   1      10.899999999999999      21.800001259999991      5.4500000000000002
   266   1      12.262499999999996      23.162501259999996                  6.8125
   267   1      13.624999999999998      24.525001259999993      5.4500000000000002
   268   1      14.987499999999997      25.887501259999993                  6.8125
   269   1      13.624999999999998      21.800001259999991      8.1750000000000007
   270   1      14.987499999999997      23.162501259999996      9.5374999999999996
   271   1      10.899999999999999      24.525001259999993      8.1750000000000007
   272   1      12.262499999999996      25.887501259999993      9.5374999999999996
   273   1      10.899999999999999      27.250001259999994                       0
   274   1      12.262499999999996      28.612501259999991                  1.3625
   275   1      13.624999999999998      29.975001259999992                       0
   276   1      14.987499999999997      31.337501259999993                  1.3625
   277   1      13.624999999999998      27.250001259999994      2.7250000000000001
   278   1      14.987499999999997      28.612501259999991      4.0875000000000004
   279   1      10.899999999999999      29.975001259999992      2.7250000000000001
   280   1      12.262499999999996      31.337501259999993      4.0875000000000004
   281   1      10.899999999999999      27.250001259999994      5.4500000000000002
   282   1      12.262499999999996      28.612501259999991                  6.8125
   283   1      13.624999999999998      29.975001259999992      5.4500000000000002
   284   1      14.987499999999997      31.337501259999993                  6.8125
   285   1      13.624999999999998      27.250001259999994      8.1750000000000007
   286   1      14.987499999999997      28.612501259999991      9.5374999999999996
   287   1      10.899999999999999      29.975001259999992      8.1750000000000007
   288   1      12.262499999999996      31.337501259999993      9.5374999999999996
   289   1                       0      32.700002519999991                       0
   290   1      1.3624999999999998      34.062502519999988                  1.3625
   291   1      2.7249999999999996      35.425002519999985                       0
   292   1      4.0874999999999986       36.78750251999999                  1.3625
   293   1      2.7249999999999996      32.700002519999991      2.7250000000000001
   294   1      4.0874999999999986      34.062502519999988      4.0875000000000004
   295   1                       0      35.425002519999985      2.7250000000000001
   296   1      1.3624999999999998       36.78750251999999      4.0875000000000004
   297   1                       0      32.700002519999991      5.4500000000000002
   298   1      1.3624999999999998      34.062502519999988                  6.8125
   299   1      2.7249999999999996      35.425002519999985      5.4500000000000002
   300   1      4.0874999999999986       36.78750251999999                  6.8125
   301   1      2.7249999999999996      32.700002519999991      8.1750000000000007
   302   1      4.0874999999999986      34.062502519999988      9.5374999999999996
   303   1                       0      35.425002519999985      8.1750000000000007
   304   1      1.3624999999999998       36.78750251999999      9.5374999999999996
   305   1                       0      38.150002519999994                       0
   306   1      1.3624999999999998      39.512502519999984                  1.3625
   307   1      2.7249999999999996      40.875002519999988                       0
   308   1      4.0874999999999986      42.237502519999993                  1.3625
   309   1      2.7249999999999996      38.150002519999994      2.7250000000000001
   310   1      4.0874999999999986      39.512502519999984      4.0875000000000004
   311   1                       0      40.875002519999988      2.7250000000000001
   312   1      1.3624999999999998      42.237502519999993      4.0875000000000004
   313   1                       0      38.150002519999994      5.4500000000000002
   314   1      1.3624999999999998      39.512502519999984                  6.8125
   315   1      2.7249999999999996      40.875002519999988      5.4500000000000002
   316   1      4.0874999999999986      42.237502519999993                  6.8125
   317   1      2.7249999999999996      38.150002519999994      8.1750000000000007
   318   1      4.0874999999999986      39.512502519999984      9.5374999999999996
   319   1                       0      40.875002519999988      8.1750000000000007
   320   1      1.3624999999999998      42.237502519999993      9.5374999999999996
   321   1                       0      43.600002519999983                       0
   322   1      1.3624999999999998      44.962502519999987                  1.3625
   323   1      2.7249999999999996      46.325002519999991                       0
   324   1      4.0874999999999986      47.687502519999981                  1.3625
   325   1      2.7249999999999996      43.600002519999983      2.7250000000000001
   326   1      4.0874999999999986      44.962502519999987      4.0875000000000004
   327   1                       0      46.325002519999991      2.7250000000000001
   328   1      1.3624999999999998      47.687502519999981      4.0875000000000004
   329   1                       0      43.600002519999983      5.4500000000000002
   330   1      1.3624999999999998      44.962502519999987                  6.8125
   331   1      2.7249999999999996      46.325002519999991      5.4500000000000002
   332   1      4.0874999999999986      47.687502519999981                  6.8125
   333   1      2.7249999999999996      43.600002519999983      8.1750000000000007
   334   1      4.0874999999999986      44.962502519999987      9.5374999999999996
   335   1                       0      46.325002519999991      8.1750000000000007
   336   1      1.3624999999999998      47.687502519999981      9.5374999999999996
   337   1      5.4499999999999993      32.700002519999991                       0
   338   1      6.8124999999999991      34.062502519999988                  1.3625
   339   1      8.1749999999999972      35.425002519999985                       0
   340   1      9.5374999999999979       36.78750251999999                  1.3625
   341   1      8.1749999999999972      32.700002519999991      2.7250000000000001
   342   1      9.5374999999999979      34.062502519999988      4.0875000000000004
   343   1      5.4499999999999993      35.425002519999985      2.7250000000000001
   344   1      6.8124999999999991       36.78750251999999      4.0875000000000004
   345   1      5.4499999999999993      32.700002519999991      5.4500000000000002
   346   1      6.8124999999999991      34.062502519999988                  6.8125
   347   1      8.1749999999999972      35.425002519999985      5.4500000000000002
   348   1      9.5374999999999979       36.78750251999999                  6.8125
   349   1      8.1749999999999972      32.700002519999991      8.1750000000000007
   350   1      9.5374999999999979      34.062502519999988      9.5374999999999996
   351   1      5.4499999999999993      35.425002519999985      8.1750000000000007
   352   1      6.8124999999999991       36.78750251999999      9.5374999999999996
   353   1      5.4499999999999993      38.150002519999994                       0
   354   1      6.8124999999999991      39.512502519999984                  1.3625
   355   1      8.1749999999999972      40.875002519999988                       0
   356   1      9.5374999999999979      42.237502519999993                  1.3625
   357   1      8.1749999999999972      38.150002519999994      2.7250000000000001
   358   1      9.5374999999999979      39.512502519999984      4.0875000000000004
   359   1      5.4499999999999993      40.875002519999988      2.7250000000000001