ITEM: TIMESTEP
0
ITEM: NUMBER OF ATOMS
1296
ITEM: BOX BOUNDS pp pp ff
0.0000000000000000e+00 4.9050003779999997e+01
0.0000000000000000e+00 4.9050003779999997e+01
0.0000000000000000e+00 2.0900001610000000e+01
ITEM: ATOMS id type x y z
1 1 0 0 0
2 1 1.3625 1.3625 1.3625
3 1 2.725 2.725 0
4 1 4.0875 4.0875 1.3625
5 1 2.725 0 2.725
6 1 4.0875 1.3625 4.0875
7 1 0 2.725 2.725
8 1 1.3625 4.0875 4.0875
9 1 0 0 5.45
10 1 1.3625 1.3625 6.8125
11 1 2.725 2.725 5.45
12 1 4.0875 4.0875 6.8125
13 1 2.725 0 8.175
14 1 4.0875 1.3625 9.5375
15 1 0 2.725 8.175
16 1 1.3625 4.0875 9.5375
17 1 0 5.45 0
18 1 1.3625 6.8125 1.3625
19 1 2.725 8.175 0
20 1 4.0875 9.5375 1.3625
21 1 2.725 5.45 2.725
22 1 4.0875 6.8125 4.0875
23 1 0 8.175 2.725
24 1 1.3625 9.5375 4.0875
25 1 0 5.45 5.45
26 1 1.3625 6.8125 6.8125
27 1 2.725 8.175 5.45
28 1 4.0875 9.5375 6.8125
29 1 2.725 5.45 8.175
30 1 4.0875 6.8125 9.5375
31 1 0 8.175 8.175
32 1 1.3625 9.5375 9.5375
33 1 0 10.9 0
34 1 1.3625 12.2625 1.3625
35 1 2.725 13.625 0
36 1 4.0875 14.9875 1.3625
37 1 2.725 10.9 2.725
38 1 4.0875 12.2625 4.0875
39 1 0 13.625 2.725
40 1 1.3625 14.9875 4.0875
41 1 0 10.9 5.45
42 1 1.3625 12.2625 6.8125
43 1 2.725 13.625 5.45
44 1 4.0875 14.9875 6.8125
45 1 2.725 10.9 8.175
46 1 4.0875 12.2625 9.5375
47 1 0 13.625 8.175
48 1 1.3625 14.9875 9.5375
49 1 5.45 0 0
50 1 6.8125 1.3625 1.3625
51 1 8.175 2.725 0
52 1 9.5375 4.0875 1.3625
53 1 8.175 0 2.725
54 1 9.5375 1.3625 4.0875
55 1 5.45 2.725 2.725
56 1 6.8125 4.0875 4.0875
57 1 5.45 0 5.45
58 1 6.8125 1.3625 6.8125
59 1 8.175 2.725 5.45
60 1 9.5375 4.0875 6.8125
61 1 8.175 0 8.175
62 1 9.5375 1.3625 9.5375
63 1 5.45 2.725 8.175
64 1 6.8125 4.0875 9.5375
65 1 5.45 5.45 0
66 1 6.8125 6.8125 1.3625
67 1 8.175 8.175 0
68 1 9.5375 9.5375 1.3625
69 1 8.175 5.45 2.725
70 1 9.5375 6.8125 4.0875
71 1 5.45 8.175 2.725
72 1 6.8125 9.5375 4.0875
73 1 5.45 5.45 5.45
74 1 6.8125 6.8125 6.8125
75 1 8.175 8.175 5.45
76 1 9.5375 9.5375 6.8125
77 1 8.175 5.45 8.175
78 1 9.5375 6.8125 9.5375
79 1 5.45 8.175 8.175
80 1 6.8125 9.5375 9.5375
81 1 5.45 10.9 0
82 1 6.8125 12.2625 1.3625
83 1 8.175 13.625 0
84 1 9.5375 14.9875 1.3625
85 1 8.175 10.9 2.725
86 1 9.5375 12.2625 4.0875
87 1 5.45 13.625 2.725
88 1 6.8125 14.9875 4.0875
89 1 5.45 10.9 5.45
90 1 6.8125 12.2625 6.8125
91 1 8.175 13.625 5.45
92 1 9.5375 14.9875 6.8125
93 1 8.175 10.9 8.175
94 1 9.5375 12.2625 9.5375
95 1 5.45 13.625 8.175
96 1 6.8125 14.9875 9.5375
97 1 10.9 0 0
98 1 12.2625 1.3625 1.3625
99 1 13.625 2.725 0
100 1 14.9875 4.0875 1.3625
101 1 13.625 0 2.725
102 1 14.9875 1.3625 4.0875
103 1 10.9 2.725 2.725
104 1 12.2625 4.0875 4.0875
105 1 10.9 0 5.45
106 1 12.2625 1.3625 6.8125
107 1 13.625 2.725 5.45
108 1 14.9875 4.0875 6.8125
109 1 13.625 0 8.175
110 1 14.9875 1.3625 9.5375
111 1 10.9 2.725 8.175
112 1 12.2625 4.0875 9.5375
113 1 10.9 5.45 0
114 1 12.2625 6.8125 1.3625
115 1 13.625 8.175 0
116 1 14.9875 9.5375 1.3625
117 1 13.625 5.45 2.725
118 1 14.9875 6.8125 4.0875
119 1 10.9 8.175 2.725
120 1 12.2625 9.5375 4.0875
121 1 10.9 5.45 5.45
122 1 12.2625 6.8125 6.8125
123 1 13.625 8.175 5.45
124 1 14.9875 9.5375 6.8125
125 1 13.625 5.45 8.175
126 1 14.9875 6.8125 9.5375
127 1 10.9 8.175 8.175
128 1 12.2625 9.5375 9.5375
129 1 10.9 10.9 0
130 1 12.2625 12.2625 1.3625
131 1 13.625 13.625 0
132 1 14.9875 14.9875 1.3625
133 1 13.625 10.9 2.725
134 1 14.9875 12.2625 4.0875
135 1 10.9 13.625 2.725
136 1 12.2625 14.9875 4.0875
137 1 10.9 10.9 5.45
138 1 12.2625 12.2625 6.8125
139 1 13.625 13.625 5.45
140 1 14.9875 14.9875 6.8125
141 1 13.625 10.9 8.175
142 1 14.9875 12.2625 9.5375
143 1 10.9 13.625 8.175
144 1 12.2625 14.9875 9.5375
145 1 0 16.35 0
146 1 1.3625 17.7125 1.3625
147 1 2.725 19.075 0
148 1 4.0875 20.4375 1.3625
149 1 2.725 16.35 2.725
150 1 4.0875 17.7125 4.0875
151 1 0 19.075 2.725
152 1 1.3625 20.4375 4.0875
153 1 0 16.35 5.45
154 1 1.3625 17.7125 6.8125
155 1 2.725 19.075 5.45
156 1 4.0875 20.4375 6.8125
157 1 2.725 16.35 8.175
158 1 4.0875 17.7125 9.5375
159 1 0 19.075 8.175
160 1 1.3625 20.4375 9.5375
161 1 0 21.8 0
162 1 1.3625 23.1625 1.3625
163 1 2.725 24.525 0
164 1 4.0875 25.8875 1.3625
165 1 2.725 21.8 2.725
166 1 4.0875 23.1625 4.0875
167 1 0 24.525 2.725
168 1 1.3625 25.8875 4.0875
169 1 0 21.8 5.45
170 1 1.3625 23.1625 6.8125
171 1 2.725 24.525 5.45
172 1 4.0875 25.8875 6.8125
173 1 2.725 21.8 8.175
174 1 4.0875 23.1625 9.5375
175 1 0 24.525 8.175
176 1 1.3625 25.8875 9.5375
177 1 0 27.25 0
178 1 1.3625 28.6125 1.3625
179 1 2.725 29.975 0
180 1 4.0875 31.3375 1.3625
181 1 2.725 27.25 2.725
182 1 4.0875 28.6125 4.0875
183 1 0 29.975 2.725
184 1 1.3625 31.3375 4.0875
185 1 0 27.25 5.45
186 1 1.3625 28.6125 6.8125
187 1 2.725 29.975 5.45
188 1 4.0875 31.3375 6.8125
189 1 2.725 27.25 8.175
190 1 4.0875 28.6125 9.5375
191 1 0 29.975 8.175
192 1 1.3625 31.3375 9.5375
193 1 5.45 16.35 0
194 1 6.8125 17.7125 1.3625
195 1 8.175 19.075 0
196 1 9.5375 20.4375 1.3625
197 1 8.175 16.35 2.725
198 1 9.5375 17.7125 4.0875
199 1 5.45 19.075 2.725
200 1 6.8125 20.4375 4.0875
201 1 5.45 16.35 5.45
202 1 6.8125 17.7125 6.8125
203 1 8.175 19.075 5.45
204 1 9.5375 20.4375 6.8125
205 1 8.175 16.35 8.175
206 1 9.5375 17.7125 9.5375
207 1 5.45 19.075 8.175
208 1 6.8125 20.4375 9.5375
209 1 5.45 21.8 0
210 1 6.8125 23.1625 1.3625
211 1 8.175 24.525 0
212 1 9.5375 25.8875 1.3625
213 1 8.175 21.8 2.725
214 1 9.5375 23.1625 4.0875
215 1 5.45 24.525 2.725
216 1 6.8125 25.8875 4.0875
217 1 5.45 21.8 5.45
218 1 6.8125 23.1625 6.8125
219 1 8.175 24.525 5.45
220 1 9.5375 25.8875 6.8125
221 1 8.175 21.8 8.175
222 1 9.5375 23.1625 9.5375
223 1 5.45 24.525 8.175
224 1 6.8125 25.8875 9.5375
225 1 5.45 27.25 0
226 1 6.8125 28.6125 1.3625
227 1 8.175 29.975 0
228 1 9.5375 31.3375 1.3625
229 1 8.175 27.25 2.725
230 1 9.5375 28.6125 4.0875
231 1 5.45 29.975 2.725
232 1 6.8125 31.3375 4.0875
233 1 5.45 27.25 5.45
234 1 6.8125 28.6125 6.8125
235 1 8.175 29.975 5.45
236 1 9.5375 31.3375 6.8125
237 1 8.175 27.25 8.175
238 1 9.5375 28.6125 9.5375
239 1 5.45 29.975 8.175
240 1 6.8125 31.3375 9.5375
241 1 10.9 16.35 0
242 1 12.2625 17.7125 1.3625
243 1 13.625 19.075 0
244 1 14.9875 20.4375 1.3625
245 1 13.625 16.35 2.725
246 1 14.9875 17.7125 4.0875
247 1 10.9 19.075 2.725
248 1 12.2625 20.4375 4.0875
249 1 10.9 16.35 5.45
250 1 12.2625 17.7125 6.8125
251 1 13.625 19.075 5.45
252 1 14.9875 20.4375 6.8125
253 1 13.625 16.35 8.175
254 1 14.9875 17.7125 9.5375
255 1 10.9 19.075 8.175
256 1 12.2625 20.4375 9.5375
257 1 10.9 21.8 0
258 1 12.2625 23.1625 1.3625
259 1 13.625 24.525 0
260 1 14.9875 25.8875 1.3625
261 1 13.625 21.8 2.725
262 1 14.9875 23.1625 4.0875
263 1 10.9 24.525 2.725
264 1 12.2625 25.8875 4.0875
265 1 10.9 21.8 5.45
266 1 12.2625 23.1625 6.8125
267 1 13.625 24.525 5.45
268 1 14.9875 25.8875 6.8125
269 1 13.625 21.8 8.175
270 1 14.9875 23.1625 9.5375
271 1 10.9 24.525 8.175
272 1 12.2625 25.8875 9.5375
273 1 10.9 27.25 0
274 1 12.2625 28.6125 1.3625
275 1 13.625 29.975 0
276 1 14.9875 31.3375 1.3625
277 1 13.625 27.25 2.725
278 1 14.9875 28.6125 4.0875
279 1 10.9 29.975 2.725
280 1 12.2625 31.3375 4.0875
281 1 10.9 27.25 5.45
282 1 12.2625 28.6125 6.8125
283 1 13.625 29.975 5.45
284 1 14.9875 31.3375 6.8125
285 1 13.625 27.25 8.175
286 1 14.9875 28.6125 9.5375
287 1 10.9 29.975 8.175
288 1 12.2625 31.3375 9.5375
289 1 0 32.7 0
290 1 1.3625 34.0625 1.3625
291 1 2.725 35.425 0
292 1 4.0875 36.7875 1.3625
293 1 2.725 32.7 2.725
294 1 4.0875 34.0625 4.0875
295 1 0 35.425 2.725
296 1 1.3625 36.7875 4.0875
297 1 0 32.7 5.45
298 1 1.3625 34.0625 6.8125
299 1 2.725 35.425 5.45
300 1 4.0875 36.7875 6.8125
301 1 2.725 32.7 8.175
302 1 4.0875 34.0625 9.5375
303 1 0 35.425 8.175
304 1 1.3625 36.7875 9.5375
305 1 0 38.15 0
306 1 1.3625 39.5125 1.3625
307 1 2.725 40.875 0
308 1 4.0875 42.2375 1.3625
309 1 2.725 38.15 2.725
310 1 4.0875 39.5125 4.0875
311 1 0 40.875 2.725
312 1 1.3625 42.2375 4.0875
313 1 0 38.15 5.45
314 1 1.3625 39.5125 6.8125
315 1 2.725 40.875 5.45
316 1 4.0875 42.2375 6.8125
317 1 2.725 38.15 8.175
318 1 4.0875 39.5125 9.5375
319 1 0 40.875 8.175
320 1 1.3625 42.2375 9.5375
321 1 0 43.6 0
322 1 1.3625 44.9625 1.3625
323 1 2.725 46.325 0
324 1 4.0875 47.6875 1.3625
325 1 2.725 43.6 2.725
326 1 4.0875 44.9625 4.0875
327 1 0 46.325 2.725
328 1 1.3625 47.6875 4.0875
329 1 0 43.6 5.45
330 1 1.3625 44.9625 6.8125
331 1 2.725 46.325 5.45
332 1 4.0875 47.6875 6.8125
333 1 2.725 43.6 8.175
334 1 4.0875 44.9625 9.5375
335 1 0 46.325 8.175
336 1 1.3625 47.6875 9.5375
337 1 5.45 32.7 0
338 1 6.8125 34.0625 1.3625
339 1 8.175 35.425 0
340 1 9.5375 36.7875 1.3625
341 1 8.175 32.7 2.725
342 1 9.5375 34.0625 4.0875
343 1 5.45 35.425 2.725
344 1 6.8125 36.7875 4.0875
345 1 5.45 32.7 5.45
346 1 6.8125 34.0625 6.8125
347 1 8.175 35.425 5.45
348 1 9.5375 36.7875 6.8125
349 1 8.175 32.7 8.175
350 1 9.5375 34.0625 9.5375
351 1 5.45 35.425 8.175
352 1 6.8125 36.7875 9.5375
353 1 5.45 38.15 0
354 1 6.8125 39.5125 1.3625
355 1 8.175 40.875 0
356 1 9.5375 42.2375 1.3625
357 1 8.175 38.15 2.725
358 1 9.5375 39.5125 4.0875
359 1 5.45 40.875 2.725
360 1 6.8125 42.2375 4.0875
361 1 5.45 38.15 5.45
362 1 6.8125 39.5125 6.8125
363 1 8.175 40.875 5.45
364 1 9.5375 42.2375 6.8125
365 1 8.175 38.15 8.175
366 1 9.5375 39.5125 9.5375
367 1 5.45 40.875 8.175
368 1 6.8125 42.2375 9.5375
369 1 5.45 43.6 0
370 1 6.8125 44.9625 1.3625
371 1 8.175 46.325 0
372 1 9.5375 47.6875 1.3625
373 1 8.175 43.6 2.725
374 1 9.5375 44.9625 4.0875
375 1 5.45 46.325 2.725
376 1 6.8125 47.6875 4.0875
377 1 5.45 43.6 5.45
378 1 6.8125 44.9625 6.8125
379 1 8.175 46.325 5.45
380 1 9.5375 47.6875 6.8125
381 1 8.175 43.6 8.175
382 1 9.5375 44.9625 9.5375
383 1 5.45 46.325 8.175
384 1 6.8125 47.6875 9.5375
385 1 10.9 32.7 0
386 1 12.2625 34.0625 1.3625
387 1 13.625 35.425 0
388 1 14.9875 36.7875 1.3625
389 1 13.625 32.7 2.725
390 1 14.9875 34.0625 4.0875
391 1 10.9 35.425 2.725
392 1 12.2625 36.7875 4.0875
393 1 10.9 32.7 5.45
394 1 12.2625 34.0625 6.8125
395 1 13.625 35.425 5.45
396 1 14.9875 36.7875 6.8125
397 1 13.625 32.7 8.175
398 1 14.9875 34.0625 9.5375
399 1 10.9 35.425 8.175
400 1 12.2625 36.7875 9.5375
401 1 10.9 38.15 0
402 1 12.2625 39.5125 1.3625
403 1 13.625 40.875 0
404 1 14.9875 42.2375 1.3625
405 1 13.625 38.15 2.725
406 1 14.9875 39.5125 4.0875
407 1 10.9 40.875 2.725
408 1 12.2625 42.2375 4.0875
409 1 10.9 38.15 5.45
410 1 12.2625 39.5125 6.8125
411 1 13.625 40.875 5.45
412 1 14.9875 42.2375 6.8125
413 1 13.625 38.15 8.175
414 1 14.9875 39.5125 9.5375
415 1 10.9 40.875 8.175
416 1 12.2625 42.2375 9.5375
417 1 10.9 43.6 0
418 1 12.2625 44.9625 1.3625
419 1 13.625 46.325 0
420 1 14.9875 47.6875 1.3625
421 1 13.625 43.6 2.725
422 1 14.9875 44.9625 4.0875
423 1 10.9 46.325 2.725
424 1 12.2625 47.6875 4.0875
425 1 10.9 43.6 5.45
426 1 12.2625 44.9625 6.8125
427 1 13.625 46.325 5.45
428 1 14.9875 47.6875 6.8125
429 1 13.625 43.6 8.175
430 1 14.9875 44.9625 9.5375
431 1 10.9 46.325 8.175
432 1 12.2625 47.6875 9.5375
433 1 16.35 0 0
434 1 17.7125 1.3625 1.3625
435 1 19.075 2.725 0
436 1 20.4375 4.0875 1.3625
437 1 19.075 0 2.725
438 1 20.4375 1.3625 4.0875
439 1 16.35 2.725 2.725
440 1 17.7125 4.0875 4.0875
441 1 16.35 0 5.45
442 1 17.7125 1.3625 6.8125
443 1 19.075 2.725 5.45
444 1 20.4375 4.0875 6.8125
445 1 19.075 0 8.175
446 1 20.4375 1.3625 9.5375
447 1 16.35 2.725 8.175
448 1 17.7125 4.0875 9.5375
449 1 16.35 5.45 0
450 1 17.7125 6.8125 1.3625
451 1 19.075 8.175 0
452 1 20.4375 9.5375 1.3625
453 1 19.075 5.45 2.725
454 1 20.4375 6.8125 4.0875
455 1 16.35 8.175 2.725
456 1 17.7125 9.5375 4.0875
457 1 16.35 5.45 5.45
458 1 17.7125 6.8125 6.8125
459 1 19.075 8.175 5.45
460 1 20.4375 9.5375 6.8125
461 1 19.075 5.45 8.175
462 1 20.4375 6.8125 9.5375
463 1 16.35 8.175 8.175
464 1 17.7125 9.5375 9.5375
465 1 16.35 10.9 0
466 1 17.7125 12.2625 1.3625
467 1 19.075 13.625 0
468 1 20.4375 14.9875 1.3625
469 1 19.075 10.9 2.725
470 1 20.4375 12.2625 4.0875
471 1 16.35 13.625 2.725
472 1 17.7125 14.9875 4.0875
473 1 16.35 10.9 5.45
474 1 17.7125 12.2625 6.8125
475 1 19.075 13.625 5.45
476 1 20.4375 14.9875 6.8125
477 1 19.075 10.9 8.175
478 1 20.4375 12.2625 9.5375
479 1 16.35 13.625 8.175
480 1 17.7125 14.9875 9.5375
481 1 21.8 0 0
482 1 23.1625 1.3625 1.3625
483 1 24.525 2.725 0
484 1 25.8875 4.0875 1.3625
485 1 24.525 0 2.725
486 1 25.8875 1.3625 4.0875
487 1 21.8 2.725 2.725
488 1 23.1625 4.0875 4.0875
489 1 21.8 0 5.45
490 1 23.1625 1.3625 6.8125
491 1 24.525 2.725 5.45
492 1 25.8875 4.0875 6.8125
493 1 24.525 0 8.175
494 1 25.8875 1.3625 9.5375
495 1 21.8 2.725 8.175
496 1 23.1625 4.0875 9.5375
497 1 21.8 5.45 0
498 1 23.1625 6.8125 1.3625
499 1 24.525 8.175 0
500 1 25.8875 9.5375 1.3625
501 1 24.525 5.45 2.725
502 1 25.8875 6.8125 4.0875
503 1 21.8 8.175 2.725
504 1 23.1625 9.5375 4.0875
505 1 21.8 5.45 5.45
506 1 23.1625 6.8125 6.8125
507 1 24.525 8.175 5.45
508 1 25.8875 9.5375 6.8125
509 1 24.525 5.45 8.175
510 1 25.8875 6.8125 9.5375
511 1 21.8 8.175 8.175
512 1 23.1625 9.5375 9.5375
513 1 21.8 10.9 0
514 1 23.1625 12.2625 1.3625
515 1 24.525 13.625 0
516 1 25.8875 14.9875 1.3625
517 1 24.525 10.9 2.725
518 1 25.8875 12.2625 4.0875
519 1 21.8 13.625 2.725
520 1 23.1625 14.9875 4.0875
521 1 21.8 10.9 5.45
522 1 23.1625 12.2625 6.8125
523 1 24.525 13.625 5.45
524 1 25.8875 14.9875 6.8125
525 1 24.525 10.9 8.175
526 1 25.8875 12.2625 9.5375
527 1 21.8 13.625 8.175
528 1 23.1625 14.9875 9.5375
529 1 27.25 0 0
530 1 28.6125 1.3625 1.3625
531 1 29.975 2.725 0
532 1 31.3375 4.0875 1.3625
533 1 29.975 0 2.725
534 1 31.3375 1.3625 4.0875
535 1 27.25 2.725 2.725
536 1 28.6125 4.0875 4.0875
537 1 27.25 0 5.45
538 1 28.6125 1.3625 6.8125
539 1 29.975 2.725 5.45
540 1 31.3375 4.0875 6.8125
541 1 29.975 0 8.175
542 1 31.3375 1.3625 9.5375
543 1 27.25 2.725 8.175
544 1 28.6125 4.0875 9.5375
545 1 27.25 5.45 0
546 1 28.6125 6.8125 1.3625
547 1 29.975 8.175 0
548 1 31.3375 9.5375 1.3625
549 1 29.975 5.45 2.725
550 1 31.3375 6.8125 4.0875
551 1 27.25 8.175 2.725
552 1 28.6125 9.5375 4.0875
553 1 27.25 5.45 5.45
554 1 28.6125 6.8125 6.8125
555 1 29.975 8.175 5.45
556 1 31.3375 9.5375 6.8125
557 1 29.975 5.45 8.175
558 1 31.3375 6.8125 9.5375
559 1 27.25 8.175 8.175
560 1 28.6125 9.5375 9.5375
561 1 27.25 10.9 0
562 1 28.6125 12.2625 1.3625
563 1 29.975 13.625 0
564 1 31.3375 14.9875 1.3625
565 1 29.975 10.9 2.725
566 1 31.3375 12.2625 4.0875
567 1 27.25 13.625 2.725
568 1 28.6125 14.9875 4.0875
569 1 27.25 10.9 5.45
570 1 28.6125 12.2625 6.8125
571 1 29.975 13.625 5.45
572 1 31.3375 14.9875 6.8125
573 1 29.975 10.9 8.175
574 1 31.3375 12.2625 9.5375
575 1 27.25 13.625 8.175
576 1 28.6125 14.9875 9.5375
577 1 16.35 16.35 0
578 1 17.7125 17.7125 1.3625
579 1 19.075 19.075 0
580 1 20.4375 20.4375 1.3625
581 1 19.075 16.35 2.725
582 1 20.4375 17.7125 4.0875
583 1 16.35 19.075 2.725
584 1 17.7125 20.4375 4.0875
585 1 16.35 16.35 5.45
586 1 17.7125 17.7125 6.8125
587 1 19.075 19.075 5.45
588 1 20.4375 20.4375 6.8125
589 1 19.075 16.35 8.175
590 1 20.4375 17.7125 9.5375
591 1 16.35 19.075 8.175
592 1 17.7125 20.4375 9.5375
593 1 16.35 21.8 0
594 1 17.7125 23.1625 1.3625
595 1 19.075 24.525 0
596 1 20.4375 25.8875 1.3625
597 1 19.075 21.8 2.725
598 1 20.4375 23.1625 4.0875
599 1 16.35 24.525 2.725
600 1 17.7125 25.8875 4.0875
601 1 16.35 21.8 5.45
602 1 17.7125 23.1625 6.8125
603 1 19.075 24.525 5.45
604 1 20.4375 25.8875 6.8125
605 1 19.075 21.8 8.175
606 1 20.4375 23.1625 9.5375
607 1 16.35 24.525 8.175
608 1 17.7125 25.8875 9.5375
609 1 16.35 27.25 0
610 1 17.7125 28.6125 1.3625
611 1 19.075 29.975 0
612 1 20.4375 31.3375 1.3625
613 1 19.075 27.25 2.725
614 1 20.4375 28.6125 4.0875
615 1 16.35 29.975 2.725
616 1 17.7125 31.3375 4.0875
617 1 16.35 27.25 5.45
618 1 17.7125 28.6125 6.8125
619 1 19.075 29.975 5.45
620 1 20.4375 31.3375 6.8125
621 1 19.075 27.25 8.175
622 1 20.4375 28.6125 9.5375
623 1 16.35 29.975 8.175
624 1 17.7125 31.3375 9.5375
625 1 21.8 16.35 0
626 1 23.1625 17.7125 1.3625
627 1 24.525 19.075 0
628 1 25.8875 20.4375 1.3625
629 1 24.525 16.35 2.725
630 1 25.8875 17.7125 4.0875
631 1 21.8 19.075 2.725
632 1 23.1625 20.4375 4.0875
633 1 21.8 16.35 5.45
634 1 23.1625 17.7125 6.8125
635 1 24.525 19.075 5.45
636 1 25.8875 20.4375 6.8125
637 1 24.525 16.35 8.175
638 1 25.8875 17.7125 9.5375
639 1 21.8 19.075 8.175
640 1 23.1625 20.4375 9.5375
641 1 21.8 21.8 0
642 1 23.1625 23.1625 1.3625
643 1 24.525 24.525 0
644 1 25.8875 25.8875 1.3625
645 1 24.525 21.8 2.725
646 1 25.8875 23.1625 4.0875
647 1 21.8 24.525 2.725
648 1 23.1625 25.8875 4.0875
649 1 21.8 21.8 5.45
650 1 23.1625 23.1625 6.8125
651 1 24.525 24.525 5.45
652 1 25.8875 25.8875 6.8125
653 1 24.525 21.8 8.175
654 1 25.8875 23.1625 9.5375
655 1 21.8 24.525 8.175
656 1 23.1625 25.8875 9.5375
657 1 21.8 27.25 0
658 1 23.1625 28.6125 1.3625
659 1 24.525 29.975 0
660 1 25.8875 31.3375 1.3625
661 1 24.525 27.25 2.725
662 1 25.8875 28.6125 4.0875
663 1 21.8 29.975 2.725
664 1 23.1625 31.3375 4.0875
665 1 21.8 27.25 5.45
666 1 23.1625 28.6125 6.8125
667 1 24.525 29.975 5.45
668 1 25.8875 31.3375 6.8125
669 1 24.525 27.25 8.175
670 1 25.8875 28.6125 9.5375
671 1 21.8 29.975 8.175
672 1 23.1625 31.3375 9.5375
673 1 27.25 16.35 0
674 1 28.6125 17.7125 1.3625
675 1 29.975 19.075 0
676 1 31.3375 20.4375 1.3625
677 1 29.975 16.35 2.725
678 1 31.3375 17.7125 4.0875
679 1 27.25 19.075 2.725
680 1 28.6125 20.4375 4.0875
681 1 27.25 16.35 5.45
682 1 28.6125 17.7125 6.8125
683 1 29.975 19.075 5.45
684 1 31.3375 20.4375 6.8125
685 1 29.975 16.35 8.175
686 1 31.3375 17.7125 9.5375
687 1 27.25 19.075 8.175
688 1 28.6125 20.4375 9.5375
689 1 27.25 21.8 0
690 1 28.6125 23.1625 1.3625
691 1 29.975 24.525 0
692 1 31.3375 25.8875 1.3625
693 1 29.975 21.8 2.725
694 1 31.3375 23.1625 4.0875
695 1 27.25 24.525 2.725
696 1 28.6125 25.8875 4.0875
697 1 27.25 21.8 5.45
698 1 28.6125 23.1625 6.8125
699 1 29.975 24.525 5.45
700 1 31.3375 25.8875 6.8125
701 1 29.975 21.8 8.175
702 1 31.3375 23.1625 9.5375
703 1 27.25 24.525 8.175
704 1 28.6125 25.8875 9.5375
705 1 27.25 27.25 0
706 1 28.6125 28.6125 1.3625
707 1 29.975 29.975 0
708 1 31.3375 31.3375 1.3625
709 1 29.975 27.25 2.725
710 1 31.3375 28.6125 4.0875
711 1 27.25 29.975 2.725
712 1 28.6125 31.3375 4.0875
713 1 27.25 27.25 5.45
714 1 28.6125 28.6125 6.8125
715 1 29.975 29.975 5.45
716 1 31.3375 31.3375 6.8125
717 1 29.975 27.25 8.175
718 1 31.3375 28.6125 9.5375
719 1 27.25 29.975 8.175
720 1 28.6125 31.3375 9.5375
721 1 16.35 32.7 0
722 1 17.7125 34.0625 1.3625
723 1 19.075 35.425 0
724 1 20.4375 36.7875 1.3625
725 1 19.075 32.7 2.725
726 1 20.4375 34.0625 4.0875
727 1 16.35 35.425 2.725
728 1 17.7125 36.7875 4.0875
729 1 16.35 32.7 5.45
730 1 17.7125 34.0625 6.8125
731 1 19.075 35.425 5.45
732 1 20.4375 36.7875 6.8125
733 1 19.075 32.7 8.175
734 1 20.4375 34.0625 9.5375
735 1 16.35 35.425 8.175
736 1 17.7125 36.7875 9.5375
737 1 16.35 38.15 0
738 1 17.7125 39.5125 1.3625
739 1 19.075 40.875 0
740 1 20.4375 42.2375 1.3625
741 1 19.075 38.15 2.725
742 1 20.4375 39.5125 4.0875
743 1 16.35 40.875 2.725
744 1 17.7125 42.2375 4.0875
745 1 16.35 38.15 5.45
746 1 17.7125 39.5125 6.8125
747 1 19.075 40.875 5.45
748 1 20.4375 42.2375 6.8125
749 1 19.075 38.15 8.175
750 1 20.4375 39.5125 9.5375
751 1 16.35 40.875 8.175
752 1 17.7125 42.2375 9.5375
753 1 16.35 43.6 0
754 1 17.7125 44.9625 1.3625
755 1 19.075 46.325 0
756 1 20.4375 47.6875 1.3625
757 1 19.075 43.6 2.725
758 1 20.4375 44.9625 4.0875
759 1 16.35 46.325 2.725
760 1 17.7125 47.6875 4.0875
761 1 16.35 43.6 5.45
762 1 17.7125 44.9625 6.8125
763 1 19.075 46.325 5.45
764 1 20.4375 47.6875 6.8125
765 1 19.075 43.6 8.175
766 1 20.4375 44.9625 9.5375
767 1 16.35 46.325 8.175
768 1 17.7125 47.6875 9.5375
769 1 21.8 32.7 0
770 1 23.1625 34.0625 1.3625
771 1 24.525 35.425 0
772 1 25.8875 36.7875 1.3625
773 1 24.525 32.7 2.725
774 1 25.8875 34.0625 4.0875
775 1 21.8 35.425 2.725
776 1 23.1625 36.7875 4.0875
777 1 21.8 32.7 5.45
778 1 23.1625 34.0625 6.8125
779 1 24.525 35.425 5.45
780 1 25.8875 36.7875 6.8125
781 1 24.525 32.7 8.175
782 1 25.8875 34.0625 9.5375
783 1 21.8 35.425 8.175
784 1 23.1625 36.7875 9.5375
785 1 21.8 38.15 0
786 1 23.1625 39.5125 1.3625
787 1 24.525 40.875 0
788 1 25.8875 42.2375 1.3625
789 1 24.525 38.15 2.725
790 1 25.8875 39.5125 4.0875
791 1 21.8 40.875 2.725
792 1 23.1625 42.2375 4.0875
793 1 21.8 38.15 5.45
794 1 23.1625 39.5125 6.8125
795 1 24.525 40.875 5.45
796 1 25.8875 42.2375 6.8125
797 1 24.525 38.15 8.175
798 1 25.8875 39.5125 9.5375
799 1 21.8 40.875 8.175
800 1 23.1625 42.2375 9.5375
801 1 21.8 43.6 0
802 1 23.1625 44.9625 1.3625
803 1 24.525 46.325 0
804 1 25.8875 47.6875 1.3625
805 1 24.525 43.6 2.725
806 1 25.8875 44.9625 4.0875
807 1 21.8 46.325 2.725
808 1 23.1625 47.6875 4.0875
809 1 21.8 43.6 5.45
810 1 23.1625 44.9625 6.8125
811 1 24.525 46.325 5.45
812 1 25.8875 47.6875 6.8125
813 1 24.525 43.6 8.175
814 1 25.8875 44.9625 9.5375
815 1 21.8 46.325 8.175
816 1 23.1625 47.6875 9.5375
817 1 27.25 32.7 0
818 1 28.6125 34.0625 1.3625
819 1 29.975 35.425 0
820 1 31.3375 36.7875 1.3625
821 1 29.975 32.7 2.725
822 1 31.3375 34.0625 4.0875
823 1 27.25 35.425 2.725
824 1 28.6125 36.7875 4.0875
825 1 27.25 32.7 5.45
826 1 28.6125 34.0625 6.8125
827 1 29.975 35.425 5.45
828 1 31.3375 36.7875 6.8125
829 1 29.975 32.7 8.175
830 1 31.3375 34.0625 9.5375
831 1 27.25 35.425 8.175
832 1 28.6125 36.7875 9.5375
833 1 27.25 38.15 0
834 1 28.6125 39.5125 1.3625
835 1 29.975 40.875 0
836 1 31.3375 42.2375 1.3625
837 1 29.975 38.15 2.725
838 1 31.3375 39.5125 4.0875
839 1 27.25 40.875 2.725
840 1 28.6125 42.2375 4.0875
841 1 27.25 38.15 5.45
842 1 28.6125 39.5125 6.8125
843 1 29.975 40.875 5.45
844 1 31.3375 42.2375 6.8125
845 1 29.975 38.15 8.175
846 1 31.3375 39.5125 9.5375
847 1 27.25 40.875 8.175
848 1 28.6125 42.2375 9.5375
849 1 27.25 43.6 0
850 1 28.6125 44.9625 1.3625
851 1 29.975 46.325 0
852 1 31.3375 47.6875 1.3625
853 1 29.975 43.6 2.725
854 1 31.3375 44.9625 4.0875
855 1 27.25 46.325 2.725
856 1 28.6125 47.6875 4.0875
857 1 27.25 43.6 5.45
858 1 28.6125 44.9625 6.8125
859 1 29.975 46.325 5.45
860 1 31.3375 47.6875 6.8125
861 1 29.975 43.6 8.175
862 1 31.3375 44.9625 9.5375
863 1 27.25 46.325 8.175
864 1 28.6125 47.6875 9.5375
865 1 32.7 0 0
866 1 34.0625 1.3625 1.3625
867 1 35.425 2.725 0
868 1 36.7875 4.0875 1.3625
869 1 35.425 0 2.725
870 1 36.7875 1.3625 4.0875
871 1 32.7 2.725 2.725
872 1 34.0625 4.0875 4.0875
873 1 32.7 0 5.45
874 1 34.0625 1.3625 6.8125
875 1 35.425 2.725 5.45
876 1 36.7875 4.0875 6.8125
877 1 35.425 0 8.175
878 1 36.7875 1.3625 9.5375
879 1 32.7 2.725 8.175
880 1 34.0625 4.0875 9.5375
881 1 32.7 5.45 0
882 1 34.0625 6.8125 1.3625
883 1 35.425 8.175 0
884 1 36.7875 9.5375 1.3625
885 1 35.425 5.45 2.725
886 1 36.7875 6.8125 4.0875
887 1 32.7 8.175 2.725
888 1 34.0625 9.5375 4.0875
889 1 32.7 5.45 5.45
890 1 34.0625 6.8125 6.8125
891 1 35.425 8.175 5.45
892 1 36.7875 9.5375 6.8125
893 1 35.425 5.45 8.175
894 1 36.7875 6.8125 9.5375
895 1 32.7 8.175 8.175
896 1 34.0625 9.5375 9.5375
897 1 32.7 10.9 0
898 1 34.0625 12.2625 1.3625
899 1 35.425 13.625 0
900 1 36.7875 14.9875 1.3625
901 1 35.425 10.9 2.725
902 1 36.7875 12.2625 4.0875
903 1 32.7 13.625 2.725
904 1 34.0625 14.9875 4.0875
905 1 32.7 10.9 5.45
906 1 34.0625 12.2625 6.8125
907 1 35.425 13.625 5.45
908 1 36.7875 14.9875 6.8125
909 1 35.425 10.9 8.175
910 1 36.7875 12.2625 9.5375
911 1 32.7 13.625 8.175
912 1 34.0625 14.9875 9.5375
913 1 38.15 0 0
914 1 39.5125 1.3625 1.3625
915 1 40.875 2.725 0
916 1 42.2375 4.0875 1.3625
917 1 40.875 0 2.725
918 1 42.2375 1.3625 4.0875
919 1 38.15 2.725 2.725
920 1 39.5125 4.0875 4.0875
921 1 38.15 0 5.45
922 1 39.5125 1.3625 6.8125
923 1 40.875 2.725 5.45
924 1 42.2375 4.0875 6.8125
925 1 40.875 0 8.175
926 1 42.2375 1.3625 9.5375
927 1 38.15 2.725 8.175
928 1 39.5125 4.0875 9.5375
929 1 38.15 5.45 0
930 1 39.5125 6.8125 1.3625
931 1 40.875 8.175 0
932 1 42.2375 9.5375 1.3625
933 1 40.875 5.45 2.725
934 1 42.2375 6.8125 4.0875
935 1 38.15 8.175 2.725
936 1 39.5125 9.5375 4.0875
937 1 38.15 5.45 5.45
938 1 39.5125 6.8125 6.8125
939 1 40.875 8.175 5.45
940 1 42.2375 9.5375 6.8125
941 1 40.875 5.45 8.175
942 1 42.2375 6.8125 9.5375
943 1 38.15 8.175 8.175
944 1 39.5125 9.5375 9.5375
945 1 38.15 10.9 0
946 1 39.5125 12.2625 1.3625
947 1 40.875 13.625 0
948 1 42.2375 14.9875 1.3625
949 1 40.875 10.9 2.725
950 1 42.2375 12.2625 4.0875
951 1 38.15 13.625 2.725
952 1 39.5125 14.9875 4.0875
953 1 38.15 10.9 5.45
954 1 39.5125 12.2625 6.8125
955 1 40.875 13.625 5.45
956 1 42.2375 14.9875 6.8125
957 1 40.875 10.9 8.175
958 1 42.2375 12.2625 9.5375
959 1 38.15 13.625 8.175
960 1 39.5125 14.9875 9.5375
961 1 43.6 0 0
962 1 44.9625 1.3625 1.3625
963 1 46.325 2.725 0
964 1 47.6875 4.0875 1.3625
965 1 46.325 0 2.725
966 1 47.6875 1.3625 4.0875
967 1 43.6 2.725 2.725
968 1 44.9625 4.0875 4.0875
969 1 43.6 0 5.45
970 1 44.9625 1.3625 6.8125
971 1 46.325 2.725 5.45
972 1 47.6875 4.0875 6.8125
973 1 46.325 0 8.175
974 1 47.6875 1.3625 9.5375
975 1 43.6 2.725 8.175
976 1 44.9625 4.0875 9.5375
977 1 43.6 5.45 0
978 1 44.9625 6.8125 1.3625
979 1 46.325 8.175 0
980 1 47.6875 9.5375 1.3625
981 1 46.325 5.45 2.725
982 1 47.6875 6.8125 4.0875
983 1 43.6 8.175 2.725
984 1 44.9625 9.5375 4.0875
985 1 43.6 5.45 5.45
986 1 44.9625 6.8125 6.8125
987 1 46.325 8.175 5.45
988 1 47.6875 9.5375 6.8125
989 1 46.325 5.45 8.175
990 1 47.6875 6.8125 9.5375
991 1 43.6 8.175 8.175
992 1 44.9625 9.5375 9.5375
993 1 43.6 10.9 0
994 1 44.9625 12.2625 1.3625
995 1 46.325 13.625 0
996 1 47.6875 14.9875 1.3625
997 1 46.325 10.9 2.725
998 1 47.6875 12.2625 4.0875
999 1 43.6 13.625 2.725
1000 1 44.9625 14.9875 4.0875
1001 1 43.6 10.9 5.45
1002 1 44.9625 12.2625 6.8125
1003 1 46.325 13.625 5.45
1004 1 47.6875 14.9875 6.8125
1005 1 46.325 10.9 8.175
1006 1 47.6875 12.2625 9.5375
1007 1 43.6 13.625 8.175
1008 1 44.9625 14.9875 9.5375
1009 1 32.7 16.35 0
1010 1 34.0625 17.7125 1.3625
1011 1 35.425 19.075 0
1012 1 36.7875 20.4375 1.3625
1013 1 35.425 16.35 2.725
1014 1 36.7875 17.7125 4.0875
1015 1 32.7 19.075 2.725
1016 1 34.0625 20.4375 4.0875
1017 1 32.7 16.35 5.45
1018 1 34.0625 17.7125 6.8125
1019 1 35.425 19.075 5.45
1020 1 36.7875 20.4375 6.8125
1021 1 35.425 16.35 8.175
1022 1 36.7875 17.7125 9.5375
1023 1 32.7 19.075 8.175
1024 1 34.0625 20.4375 9.5375
1025 1 32.7 21.8 0
1026 1 34.0625 23.1625 1.3625
1027 1 35.425 24.525 0
1028 1 36.7875 25.8875 1.3625
1029 1 35.425 21.8 2.725
1030 1 36.7875 23.1625 4.0875
1031 1 32.7 24.525 2.725
1032 1 34.0625 25.8875 4.0875
1033 1 32.7 21.8 5.45
1034 1 34.0625 23.1625 6.8125
1035 1 35.425 24.525 5.45
1036 1 36.7875 25.8875 6.8125
1037 1 35.425 21.8 8.175
1038 1 36.7875 23.1625 9.5375
1039 1 32.7 24.525 8.175
1040 1 34.0625 25.8875 9.5375
1041 1 32.7 27.25 0
1042 1 34.0625 28.6125 1.3625
1043 1 35.425 29.975 0
1044 1 36.7875 31.3375 1.3625
1045 1 35.425 27.25 2.725
1046 1 36.7875 28.6125 4.0875
1047 1 32.7 29.975 2.725
1048 1 34.0625 31.3375 4.0875
1049 1 32.7 27.25 5.45
1050 1 34.0625 28.6125 6.8125
1051 1 35.425 29.975 5.45
1052 1 36.7875 31.3375 6.8125
1053 1 35.425 27.25 8.175
1054 1 36.7875 28.6125 9.5375
1055 1 32.7 29.975 8.175
1056 1 34.0625 31.3375 9.5375
1057 1 38.15 16.35 0
1058 1 39.5125 17.7125 1.3625
1059 1 40.875 19.075 0
1060 1 42.2375 20.4375 1.3625
1061 1 40.875 16.35 2.725
1062 1 42.2375 17.7125 4.0875
1063 1 38.15 19.075 2.725
1064 1 39.5125 20.4375 4.0875
1065 1 38.15 16.35 5.45
1066 1 39.5125 17.7125 6.8125
1067 1 40.875 19.075 5.45
1068 1 42.2375 20.4375 6.8125
1069 1 40.875 16.35 8.175
1070 1 42.2375 17.7125 9.5375
1071 1 38.15 19.075 8.175
1072 1 39.5125 20.4375 9.5375
1073 1 38.15 21.8 0
1074 1 39.5125 23.1625 1.3625
1075 1 40.875 24.525 0
1076 1 42.2375 25.8875 1.3625
1077 1 40.875 21.8 2.725
1078 1 42.2375 23.1625 4.0875
1079 1 38.15 24.525 2.725
1080 1 39.5125 25.8875 4.0875
1081 1 38.15 21.8 5.45
1082 1 39.5125 23.1625 6.8125
1083 1 40.875 24.525 5.45
1084 1 42.2375 25.8875 6.8125
1085 1 40.875 21.8 8.175
1086 1 42.2375 23.1625 9.5375
1087 1 38.15 24.525 8.175
1088 1 39.5125 25.8875 9.5375
1089 1 38.15 27.25 0
1090 1 39.5125 28.6125 1.3625
1091 1 40.875 29.975 0
1092 1 42.2375 31.3375 1.3625
1093 1 40.875 27.25 2.725
1094 1 42.2375 28.6125 4.0875
1095 1 38.15 29.975 2.725
1096 1 39.5125 31.3375 4.0875
1097 1 38.15 27.25 5.45
1098 1 39.5125 28.6125 6.8125
1099 1 40.875 29.975 5.45
1100 1 42.2375 31.3375 6.8125
1101 1 40.875 27.25 8.175
1102 1 42.2375 28.6125 9.5375
1103 1 38.15 29.975 8.175
1104 1 39.5125 31.3375 9.5375
1105 1 43.6 16.35 0
1106 1 44.9625 17.7125 1.3625
1107 1 46.325 19.075 0
1108 1 47.6875 20.4375 1.3625
1109 1 46.325 16.35 2.725
1110 1 47.6875 17.7125 4.0875
1111 1 43.6 19.075 2.725
1112 1 44.9625 20.4375 4.0875
1113 1 43.6 16.35 5.45
1114 1 44.9625 17.7125 6.8125
1115 1 46.325 19.075 5.45
1116 1 47.6875 20.4375 6.8125
1117 1 46.325 16.35 8.175
1118 1 47.6875 17.7125 9.5375
1119 1 43.6 19.075 8.175
1120 1 44.9625 20.4375 9.5375
1121 1 43.6 21.8 0
1122 1 44.9625 23.1625 1.3625
1123 1 46.325 24.525 0
1124 1 47.6875 25.8875 1.3625
1125 1 46.325 21.8 2.725
1126 1 47.6875 23.1625 4.0875
1127 1 43.6 24.525 2.725
1128 1 44.9625 25.8875 4.0875
1129 1 43.6 21.8 5.45
1130 1 44.9625 23.1625 6.8125
1131 1 46.325 24.525 5.45
1132 1 47.6875 25.8875 6.8125
1133 1 46.325 21.8 8.175
1134 1 47.6875 23.1625 9.5375
1135 1 43.6 24.525 8.175
1136 1 44.9625 25.8875 9.5375
1137 1 43.6 27.25 0
1138 1 44.9625 28.6125 1.3625
1139 1 46.325 29.975 0
1140 1 47.6875 31.3375 1.3625
1141 1 46.325 27.25 2.725
1142 1 47.6875 28.6125 4.0875
1143 1 43.6 29.975 2.725
1144 1 44.9625 31.3375 4.0875
1145 1 43.6 27.25 5.45
1146 1 44.9625 28.6125 6.8125
1147 1 46.325 29.975 5.45
1148 1 47.6875 31.3375 6.8125
1149 1 46.325 27.25 8.175
1150 1 47.6875 28.6125 9.5375
1151 1 43.6 29.975 8.175
1152 1 44.9625 31.3375 9.5375
1153 1 32.7 32.7 0
1154 1 34.0625 34.0625 1.3625
1155 1 35.425 35.425 0
1156 1 36.7875 36.7875 1.3625
1157 1 35.425 32.7 2.725
1158 1 36.7875 34.0625 4.0875
1159 1 32.7 35.425 2.725
1160 1 34.0625 36.7875 4.0875
1161 1 32.7 32.7 5.45
1162 1 34.0625 34.0625 6.8125
1163 1 35.425 35.425 5.45
1164 1 36.7875 36.7875 6.8125
1165 1 35.425 32.7 8.175