1346
Timestep 0
Si 0 0 0
Si 1.3625 1.3625 1.3625
Si 2.725 2.725 0
Si 4.0875 4.0875 1.3625
Si 2.725 0 2.725
Si 4.0875 1.3625 4.0875
Si 0 2.725 2.725
Si 1.3625 4.0875 4.0875
Si 0 0 5.45
Si 1.3625 1.3625 6.8125
Si 2.725 2.725 5.45
Si 4.0875 4.0875 6.8125
Si 2.725 0 8.175
Si 4.0875 1.3625 9.5375
Si 0 2.725 8.175
Si 1.3625 4.0875 9.5375
Si 0 5.45 0
Si 1.3625 6.8125 1.3625
Si 2.725 5.45 2.725
Si 4.0875 6.8125 4.0875
Si 0 5.45 5.45
Si 1.3625 6.8125 6.8125
Si 2.725 5.45 8.175
Si 4.0875 6.8125 9.5375
Si 5.45 0 0
Si 6.8125 1.3625 1.3625
Si 5.45 2.725 2.725
Si 6.8125 4.0875 4.0875
Si 5.45 0 5.45
Si 6.8125 1.3625 6.8125
Si 5.45 2.725 8.175
Si 6.8125 4.0875 9.5375
Si 5.45 5.45 0
Si 6.8125 6.8125 1.3625
Si 5.45 5.45 5.45
Si 6.8125 6.8125 6.8125
Si 8.175 2.725 0
Si 9.5375 4.0875 1.3625
Si 8.175 0 2.725
Si 9.5375 1.3625 4.0875
Si 8.175 2.725 5.45
Si 9.5375 4.0875 6.8125
Si 8.175 0 8.175
Si 9.5375 1.3625 9.5375
Si 8.175 5.45 2.725
Si 9.5375 6.8125 4.0875
Si 8.175 5.45 8.175
Si 9.5375 6.8125 9.5375
Si 10.9 0 0
Si 12.2625 1.3625 1.3625
Si 13.625 2.725 0
Si 13.625 0 2.725
Si 10.9 2.725 2.725
Si 12.2625 4.0875 4.0875
Si 10.9 0 5.45
Si 12.2625 1.3625 6.8125
Si 13.625 2.725 5.45
Si 13.625 0 8.175
Si 10.9 2.725 8.175
Si 12.2625 4.0875 9.5375
Si 10.9 5.45 0
Si 12.2625 6.8125 1.3625
Si 13.625 5.45 2.725
Si 10.9 5.45 5.45
Si 12.2625 6.8125 6.8125
Si 13.625 5.45 8.175
Si 14.9875 4.0875 1.3625
Si 14.9875 1.3625 4.0875
Si 14.9875 4.0875 6.8125
Si 14.9875 1.3625 9.5375
Si 14.9875 6.8125 4.0875
Si 14.9875 6.8125 9.5375
Si 16.35 0 0
Si 17.7125 1.3625 1.3625
Si 19.075 2.725 0
Si 20.4375 4.0875 1.3625
Si 19.075 0 2.725
Si 20.4375 1.3625 4.0875
Si 16.35 2.725 2.725
Si 17.7125 4.0875 4.0875
Si 16.35 0 5.45
Si 17.7125 1.3625 6.8125
Si 19.075 2.725 5.45
Si 20.4375 4.0875 6.8125
Si 19.075 0 8.175
Si 20.4375 1.3625 9.5375
Si 16.35 2.725 8.175
Si 17.7125 4.0875 9.5375
Si 16.35 5.45 0
Si 17.7125 6.8125 1.3625
Si 19.075 5.45 2.725
Si 20.4375 6.8125 4.0875
Si 16.35 5.45 5.45
Si 17.7125 6.8125 6.8125
Si 19.075 5.45 8.175
Si 20.4375 6.8125 9.5375
Si 21.8 0 0
Si 23.1625 1.3625 1.3625
Si 24.525 2.725 0
Si 25.8875 4.0875 1.3625
Si 24.525 0 2.725
Si 25.8875 1.3625 4.0875
Si 21.8 2.725 2.725
Si 23.1625 4.0875 4.0875
Si 21.8 0 5.45
Si 23.1625 1.3625 6.8125
Si 24.525 2.725 5.45
Si 25.8875 4.0875 6.8125
Si 24.525 0 8.175
Si 25.8875 1.3625 9.5375
Si 21.8 2.725 8.175
Si 23.1625 4.0875 9.5375
Si 21.8 5.45 0
Si 23.1625 6.8125 1.3625
Si 24.525 5.45 2.725
Si 25.8875 6.8125 4.0875
Si 21.8 5.45 5.45
Si 23.1625 6.8125 6.8125
Si 24.525 5.45 8.175
Si 25.8875 6.8125 9.5375
Si 27.25 0 0
Si 27.25 2.725 2.725
Si 27.25 0 5.45
Si 27.25 2.725 8.175
Si 27.25 5.45 0
Si 27.25 5.45 5.45
Si 28.6125 1.3625 1.3625
Si 29.975 2.725 0
Si 31.3375 4.0875 1.3625
Si 29.975 0 2.725
Si 31.3375 1.3625 4.0875
Si 28.6125 4.0875 4.0875
Si 28.6125 1.3625 6.8125
Si 29.975 2.725 5.45
Si 31.3375 4.0875 6.8125
Si 29.975 0 8.175
Si 31.3375 1.3625 9.5375
Si 28.6125 4.0875 9.5375
Si 28.6125 6.8125 1.3625
Si 29.975 5.45 2.725
Si 31.3375 6.8125 4.0875
Si 28.6125 6.8125 6.8125
Si 29.975 5.45 8.175
Si 31.3375 6.8125 9.5375
Si 32.7 0 0
Si 34.0625 1.3625 1.3625
Si 32.7 2.725 2.725
Si 34.0625 4.0875 4.0875
Si 32.7 0 5.45
Si 34.0625 1.3625 6.8125
Si 32.7 2.725 8.175
Si 34.0625 4.0875 9.5375
Si 32.7 5.45 0
Si 34.0625 6.8125 1.3625
Si 32.7 5.45 5.45
Si 34.0625 6.8125 6.8125
O 30.0678 1.1641 10.3183
Si 35.425 2.725 0
Si 36.7875 4.0875 1.3625
Si 35.425 0 2.725
Si 36.7875 1.3625 4.0875
Si 35.425 2.725 5.45
Si 36.7875 4.0875 6.8125
Si 35.425 0 8.175
Si 36.7875 1.3625 9.5375
Si 35.425 5.45 2.725
Si 36.7875 6.8125 4.0875
Si 35.425 5.45 8.175
Si 36.7875 6.8125 9.5375
Si 38.15 0 0
Si 39.5125 1.3625 1.3625
Si 40.875 2.725 0
Si 40.875 0 2.725
Si 38.15 2.725 2.725
Si 39.5125 4.0875 4.0875
Si 38.15 0 5.45
Si 39.5125 1.3625 6.8125
Si 40.875 2.725 5.45
Si 40.875 0 8.175
Si 38.15 2.725 8.175
Si 39.5125 4.0875 9.5375
Si 38.15 5.45 0
Si 39.5125 6.8125 1.3625
Si 40.875 5.45 2.725
Si 38.15 5.45 5.45
Si 39.5125 6.8125 6.8125
Si 40.875 5.45 8.175
Si 42.2375 4.0875 1.3625
Si 42.2375 1.3625 4.0875
Si 42.2375 4.0875 6.8125
Si 42.2375 1.3625 9.5375
Si 42.2375 6.8125 4.0875
Si 42.2375 6.8125 9.5375
Si 43.6 0 0
Si 44.9625 1.3625 1.3625
Si 46.325 2.725 0
Si 47.6875 4.0875 1.3625
Si 46.325 0 2.725
Si 47.6875 1.3625 4.0875
Si 43.6 2.725 2.725
Si 44.9625 4.0875 4.0875
Si 43.6 0 5.45
Si 44.9625 1.3625 6.8125
Si 46.325 2.725 5.45
Si 47.6875 4.0875 6.8125
Si 46.325 0 8.175
Si 47.6875 1.3625 9.5375
Si 43.6 2.725 8.175
Si 44.9625 4.0875 9.5375
Si 43.6 5.45 0
Si 44.9625 6.8125 1.3625
Si 46.325 5.45 2.725
Si 47.6875 6.8125 4.0875
Si 43.6 5.45 5.45
Si 44.9625 6.8125 6.8125
Si 46.325 5.45 8.175
Si 47.6875 6.8125 9.5375
Si 2.725 8.175 0
Si 4.0875 9.5375 1.3625
Si 0 8.175 2.725
Si 1.3625 9.5375 4.0875
Si 2.725 8.175 5.45
Si 4.0875 9.5375 6.8125
Si 0 8.175 8.175
Si 1.3625 9.5375 9.5375
Si 0 10.9 0
Si 1.3625 12.2625 1.3625
Si 2.725 13.625 0
Si 2.725 10.9 2.725
Si 4.0875 12.2625 4.0875
Si 0 13.625 2.725
Si 0 10.9 5.45
Si 1.3625 12.2625 6.8125
Si 2.725 13.625 5.45
Si 2.725 10.9 8.175
Si 4.0875 12.2625 9.5375
Si 0 13.625 8.175
Si 5.45 8.175 2.725
Si 6.8125 9.5375 4.0875
Si 5.45 8.175 8.175
Si 6.8125 9.5375 9.5375
Si 5.45 10.9 0
Si 6.8125 12.2625 1.3625
Si 5.45 13.625 2.725
Si 5.45 10.9 5.45
Si 6.8125 12.2625 6.8125
Si 5.45 13.625 8.175
Si 8.175 8.175 0
Si 9.5375 9.5375 1.3625
Si 8.175 8.175 5.45
Si 9.5375 9.5375 6.8125
Si 8.175 13.625 0
Si 8.175 10.9 2.725
Si 9.5375 12.2625 4.0875
Si 8.175 13.625 5.45
Si 8.175 10.9 8.175
Si 9.5375 12.2625 9.5375
Si 13.625 8.175 0
Si 10.9 8.175 2.725
Si 12.2625 9.5375 4.0875
Si 13.625 8.175 5.45
Si 10.9 8.175 8.175
Si 12.2625 9.5375 9.5375
Si 10.9 10.9 0
Si 12.2625 12.2625 1.3625
Si 13.625 13.625 0
Si 13.625 10.9 2.725
Si 10.9 13.625 2.725
Si 10.9 10.9 5.45
Si 12.2625 12.2625 6.8125
Si 13.625 13.625 5.45
Si 13.625 10.9 8.175
Si 10.9 13.625 8.175
Si 14.9875 9.5375 1.3625
Si 14.9875 9.5375 6.8125
Si 14.9875 12.2625 4.0875
Si 14.9875 12.2625 9.5375
Si 19.075 8.175 0
Si 20.4375 9.5375 1.3625
Si 16.35 8.175 2.725
Si 17.7125 9.5375 4.0875
Si 19.075 8.175 5.45
Si 20.4375 9.5375 6.8125
Si 16.35 8.175 8.175
Si 17.7125 9.5375 9.5375
Si 16.35 10.9 0
Si 17.7125 12.2625 1.3625
Si 19.075 13.625 0
Si 19.075 10.9 2.725
Si 20.4375 12.2625 4.0875
Si 16.35 13.625 2.725
Si 16.35 10.9 5.45
Si 17.7125 12.2625 6.8125
Si 19.075 13.625 5.45
Si 19.075 10.9 8.175
Si 20.4375 12.2625 9.5375
Si 16.35 13.625 8.175
O 20.465 13.2646 9.96041
Si 24.525 8.175 0
Si 25.8875 9.5375 1.3625
Si 21.8 8.175 2.725
Si 23.1625 9.5375 4.0875
Si 24.525 8.175 5.45
Si 25.8875 9.5375 6.8125
Si 21.8 8.175 8.175
Si 23.1625 9.5375 9.5375
Si 21.8 10.9 0
Si 23.1625 12.2625 1.3625
Si 24.525 13.625 0
Si 24.525 10.9 2.725
Si 25.8875 12.2625 4.0875
Si 21.8 13.625 2.725
Si 21.8 10.9 5.45
Si 23.1625 12.2625 6.8125
Si 24.525 13.625 5.45
Si 24.525 10.9 8.175
Si 25.8875 12.2625 9.5375
Si 21.8 13.625 8.175
Si 27.25 8.175 2.725
Si 27.25 8.175 8.175
Si 27.25 10.9 0
Si 27.25 13.625 2.725
Si 27.25 10.9 5.45
Si 27.25 13.625 8.175
Si 29.975 8.175 0
Si 31.3375 9.5375 1.3625
Si 28.6125 9.5375 4.0875
Si 29.975 8.175 5.45
Si 31.3375 9.5375 6.8125
Si 28.6125 9.5375 9.5375
Si 28.6125 12.2625 1.3625
Si 29.975 13.625 0
Si 29.975 10.9 2.725
Si 31.3375 12.2625 4.0875
Si 28.6125 12.2625 6.8125
Si 29.975 13.625 5.45
Si 29.975 10.9 8.175
Si 31.3375 12.2625 9.5375
Si 32.7 8.175 2.725
Si 34.0625 9.5375 4.0875
Si 32.7 8.175 8.175
Si 34.0625 9.5375 9.5375
Si 32.7 10.9 0
Si 34.0625 12.2625 1.3625
Si 32.7 13.625 2.725
Si 32.7 10.9 5.45
Si 34.0625 12.2625 6.8125
Si 32.7 13.625 8.175
Si 35.425 8.175 0
Si 36.7875 9.5375 1.3625
Si 35.425 8.175 5.45
Si 36.7875 9.5375 6.8125
Si 35.425 13.625 0
Si 35.425 10.9 2.725
Si 36.7875 12.2625 4.0875
Si 35.425 13.625 5.45
Si 35.425 10.9 8.175
Si 36.7875 12.2625 9.5375
Si 40.875 8.175 0
Si 38.15 8.175 2.725
Si 39.5125 9.5375 4.0875
Si 40.875 8.175 5.45
Si 38.15 8.175 8.175
Si 39.5125 9.5375 9.5375
Si 38.15 10.9 0
Si 39.5125 12.2625 1.3625
Si 40.875 13.625 0
Si 40.875 10.9 2.725
Si 38.15 13.625 2.725
Si 38.15 10.9 5.45
Si 39.5125 12.2625 6.8125
Si 40.875 13.625 5.45
Si 40.875 10.9 8.175
Si 38.15 13.625 8.175
Si 42.2375 9.5375 1.3625
Si 42.2375 9.5375 6.8125
Si 42.2375 12.2625 4.0875
Si 42.2375 12.2625 9.5375
Si 46.325 8.175 0
Si 47.6875 9.5375 1.3625
Si 43.6 8.175 2.725
Si 44.9625 9.5375 4.0875
Si 46.325 8.175 5.45
Si 47.6875 9.5375 6.8125
Si 43.6 8.175 8.175
Si 44.9625 9.5375 9.5375
Si 43.6 10.9 0
Si 44.9625 12.2625 1.3625
Si 46.325 13.625 0
Si 46.325 10.9 2.725
Si 47.6875 12.2625 4.0875
Si 43.6 13.625 2.725
Si 43.6 10.9 5.45
Si 44.9625 12.2625 6.8125
Si 46.325 13.625 5.45
Si 46.325 10.9 8.175
Si 47.6875 12.2625 9.5375
Si 43.6 13.625 8.175
Si 4.0875 14.9875 1.3625
Si 1.3625 14.9875 4.0875
Si 4.0875 14.9875 6.8125
Si 1.3625 14.9875 9.5375
Si 6.8125 14.9875 4.0875
Si 6.8125 14.9875 9.5375
Si 0 16.35 0
Si 1.3625 17.7125 1.3625
Si 2.725 19.075 0
Si 4.0875 20.4375 1.3625
Si 2.725 16.35 2.725
Si 4.0875 17.7125 4.0875
Si 0 19.075 2.725
Si 1.3625 20.4375 4.0875
Si 0 16.35 5.45
Si 1.3625 17.7125 6.8125
Si 2.725 19.075 5.45
Si 4.0875 20.4375 6.8125
Si 2.725 16.35 8.175
Si 4.0875 17.7125 9.5375
Si 0 19.075 8.175
Si 1.3625 20.4375 9.5375
Si 5.45 16.35 0
Si 6.8125 17.7125 1.3625
Si 5.45 19.075 2.725
Si 6.8125 20.4375 4.0875
Si 5.45 16.35 5.45
Si 6.8125 17.7125 6.8125
Si 5.45 19.075 8.175
Si 6.8125 20.4375 9.5375
Si 9.5375 14.9875 1.3625
Si 9.5375 14.9875 6.8125
Si 12.2625 14.9875 4.0875
Si 12.2625 14.9875 9.5375
Si 8.175 19.075 0
Si 9.5375 20.4375 1.3625
Si 8.175 16.35 2.725
Si 9.5375 17.7125 4.0875
Si 8.175 19.075 5.45
Si 9.5375 20.4375 6.8125
Si 8.175 16.35 8.175
Si 9.5375 17.7125 9.5375
Si 10.9 16.35 0
Si 12.2625 17.7125 1.3625
Si 13.625 19.075 0
Si 13.625 16.35 2.725
Si 10.9 19.075 2.725
Si 12.2625 20.4375 4.0875
Si 10.9 16.35 5.45
Si 12.2625 17.7125 6.8125
Si 13.625 19.075 5.45
Si 13.625 16.35 8.175
Si 10.9 19.075 8.175
Si 12.2625 20.4375 9.5375
Si 14.9875 14.9875 1.3625
Si 14.9875 14.9875 6.8125
Si 14.9875 20.4375 1.3625
Si 14.9875 17.7125 4.0875
Si 14.9875 20.4375 6.8125
Si 14.9875 17.7125 9.5375
Si 20.4375 14.9875 1.3625
Si 17.7125 14.9875 4.0875
Si 20.4375 14.9875 6.8125
Si 17.7125 14.9875 9.5375
Si 16.35 16.35 0
Si 17.7125 17.7125 1.3625
Si 19.075 19.075 0
Si 20.4375 20.4375 1.3625
Si 19.075 16.35 2.725
Si 20.4375 17.7125 4.0875
Si 16.35 19.075 2.725
Si 17.7125 20.4375 4.0875
Si 16.35 16.35 5.45
Si 17.7125 17.7125 6.8125
Si 19.075 19.075 5.45
Si 20.4375 20.4375 6.8125
Si 19.075 16.35 8.175
Si 20.4375 17.7125 9.5375
Si 16.35 19.075 8.175
Si 17.7125 20.4375 9.5375
Si 25.8875 14.9875 1.3625
Si 23.1625 14.9875 4.0875
Si 25.8875 14.9875 6.8125
Si 23.1625 14.9875 9.5375
Si 21.8 16.35 0
Si 23.1625 17.7125 1.3625
Si 24.525 19.075 0
Si 25.8875 20.4375 1.3625
Si 24.525 16.35 2.725
Si 25.8875 17.7125 4.0875
Si 21.8 19.075 2.725
Si 23.1625 20.4375 4.0875
Si 21.8 16.35 5.45
Si 23.1625 17.7125 6.8125
Si 24.525 19.075 5.45
Si 25.8875 20.4375 6.8125
Si 24.525 16.35 8.175
Si 25.8875 17.7125 9.5375
Si 21.8 19.075 8.175
Si 23.1625 20.4375 9.5375
Si 27.25 16.35 0
Si 27.25 19.075 2.725
Si 27.25 16.35 5.45
Si 27.25 19.075 8.175
Si 31.3375 14.9875 1.3625
Si 28.6125 14.9875 4.0875
Si 31.3375 14.9875 6.8125
Si 28.6125 14.9875 9.5375
Si 28.6125 17.7125 1.3625
Si 29.975 19.075 0
Si 31.3375 20.4375 1.3625
Si 29.975 16.35 2.725
Si 31.3375 17.7125 4.0875
Si 28.6125 20.4375 4.0875
Si 28.6125 17.7125 6.8125
Si 29.975 19.075 5.45
Si 31.3375 20.4375 6.8125
Si 29.975 16.35 8.175
Si 31.3375 17.7125 9.5375
Si 28.6125 20.4375 9.5375
Si 34.0625 14.9875 4.0875
Si 34.0625 14.9875 9.5375
Si 32.7 16.35 0
Si 34.0625 17.7125 1.3625
Si 32.7 19.075 2.725
Si 34.0625 20.4375 4.0875
Si 32.7 16.35 5.45
Si 34.0625 17.7125 6.8125
Si 32.7 19.075 8.175
Si 34.0625 20.4375 9.5375
Si 36.7875 14.9875 1.3625
Si 36.7875 14.9875 6.8125
Si 39.5125 14.9875 4.0875
Si 39.5125 14.9875 9.5375
Si 35.425 19.075 0
Si 36.7875 20.4375 1.3625
Si 35.425 16.35 2.725
Si 36.7875 17.7125 4.0875
Si 35.425 19.075 5.45
Si 36.7875 20.4375 6.8125
Si 35.425 16.35 8.175
Si 36.7875 17.7125 9.5375
Si 38.15 16.35 0
Si 39.5125 17.7125 1.3625
Si 40.875 19.075 0
Si 40.875 16.35 2.725
Si 38.15 19.075 2.725
Si 39.5125 20.4375 4.0875
Si 38.15 16.35 5.45
Si 39.5125 17.7125 6.8125
Si 40.875 19.075 5.45
Si 40.875 16.35 8.175
Si 38.15 19.075 8.175
Si 39.5125 20.4375 9.5375
Si 42.2375 14.9875 1.3625
Si 42.2375 14.9875 6.8125
Si 47.6875 14.9875 1.3625
Si 44.9625 14.9875 4.0875
Si 47.6875 14.9875 6.8125
Si 44.9625 14.9875 9.5375
Si 42.2375 20.4375 1.3625
Si 42.2375 17.7125 4.0875
Si 42.2375 20.4375 6.8125
Si 42.2375 17.7125 9.5375
Si 43.6 16.35 0
Si 44.9625 17.7125 1.3625
Si 46.325 19.075 0
Si 47.6875 20.4375 1.3625
Si 46.325 16.35 2.725
Si 47.6875 17.7125 4.0875
Si 43.6 19.075 2.725
Si 44.9625 20.4375 4.0875
Si 43.6 16.35 5.45
Si 44.9625 17.7125 6.8125
Si 46.325 19.075 5.45
Si 47.6875 20.4375 6.8125
Si 46.325 16.35 8.175
Si 47.6875 17.7125 9.5375
Si 43.6 19.075 8.175
Si 44.9625 20.4375 9.5375
Si 0 21.8 0
Si 1.3625 23.1625 1.3625
Si 2.725 24.525 0
Si 4.0875 25.8875 1.3625
Si 2.725 21.8 2.725
Si 4.0875 23.1625 4.0875
Si 0 24.525 2.725
Si 1.3625 25.8875 4.0875
Si 0 21.8 5.45
Si 1.3625 23.1625 6.8125
Si 2.725 24.525 5.45
Si 4.0875 25.8875 6.8125
Si 2.725 21.8 8.175
Si 4.0875 23.1625 9.5375
Si 0 24.525 8.175
Si 1.3625 25.8875 9.5375
Si 0 27.25 0
Si 2.725 27.25 2.725
Si 0 27.25 5.45
Si 2.725 27.25 8.175
Si 5.45 21.8 0
Si 6.8125 23.1625 1.3625
Si 5.45 24.525 2.725
Si 6.8125 25.8875 4.0875
Si 5.45 21.8 5.45
Si 6.8125 23.1625 6.8125
Si 5.45 24.525 8.175
Si 6.8125 25.8875 9.5375
Si 5.45 27.25 0
Si 5.45 27.25 5.45
Si 8.175 24.525 0
Si 9.5375 25.8875 1.3625
Si 8.175 21.8 2.725
Si 9.5375 23.1625 4.0875
Si 8.175 24.525 5.45
Si 9.5375 25.8875 6.8125
Si 8.175 21.8 8.175
Si 9.5375 23.1625 9.5375
Si 8.175 27.25 2.725
Si 8.175 27.25 8.175
Si 10.9 21.8 0
Si 12.2625 23.1625 1.3625
Si 13.625 24.525 0
Si 13.625 21.8 2.725
Si 10.9 24.525 2.725
Si 12.2625 25.8875 4.0875
Si 10.9 21.8 5.45
Si 12.2625 23.1625 6.8125
Si 13.625 24.525 5.45
Si 13.625 21.8 8.175
Si 10.9 24.525 8.175
Si 12.2625 25.8875 9.5375
Si 10.9 27.25 0
Si 13.625 27.25 2.725
Si 10.9 27.25 5.45
Si 13.625 27.25 8.175
Si 14.9875 25.8875 1.3625
Si 14.9875 23.1625 4.0875
Si 14.9875 25.8875 6.8125
Si 14.9875 23.1625 9.5375
Si 16.35 21.8 0
Si 17.7125 23.1625 1.3625
Si 19.075 24.525 0
Si 20.4375 25.8875 1.3625
Si 19.075 21.8 2.725
Si 20.4375 23.1625 4.0875
Si 16.35 24.525 2.725
Si 17.7125 25.8875 4.0875
Si 16.35 21.8 5.45
Si 17.7125 23.1625 6.8125
Si 19.075 24.525 5.45
Si 20.4375 25.8875 6.8125
Si 19.075 21.8 8.175
Si 20.4375 23.1625 9.5375
Si 16.35 24.525 8.175
Si 17.7125 25.8875 9.5375
Si 16.35 27.25 0
Si 19.075 27.25 2.725
Si 16.35 27.25 5.45
Si 19.075 27.25 8.175
Si 21.8 21.8 0
Si 23.1625 23.1625 1.3625
Si 24.525 24.525 0
Si 25.8875 25.8875 1.3625
Si 24.525 21.8 2.725
Si 25.8875 23.1625 4.0875
Si 21.8 24.525 2.725
Si 23.1625 25.8875 4.0875
Si 21.8 21.8 5.45
Si 23.1625 23.1625 6.8125
Si 24.525 24.525 5.45
Si 25.8875 25.8875 6.8125
Si 24.525 21.8 8.175
Si 25.8875 23.1625 9.5375
Si 21.8 24.525 8.175
Si 23.1625 25.8875 9.5375
Si 21.8 27.25 0
Si 24.525 27.25 2.725
Si 21.8 27.25 5.45
Si 24.525 27.25 8.175
Si 27.25 21.8 0
Si 27.25 24.525 2.725
Si 27.25 21.8 5.45
Si 27.25 24.525 8.175
Si 27.25 27.25 0
Si 27.25 27.25 5.45
Si 28.6125 23.1625 1.3625
Si 29.975 24.525 0
Si 31.3375 25.8875 1.3625
Si 29.975 21.8 2.725
Si 31.3375 23.1625 4.0875
Si 28.6125 25.8875 4.0875
Si 28.6125 23.1625 6.8125
Si 29.975 24.525 5.45
Si 31.3375 25.8875 6.8125
Si 29.975 21.8 8.175
Si 31.3375 23.1625 9.5375
Si 28.6125 25.8875 9.5375
Si 29.975 27.25 2.725
Si 29.975 27.25 8.175
Si 32.7 21.8 0
Si 34.0625 23.1625 1.3625
Si 32.7 24.525 2.725
Si 34.0625 25.8875 4.0875
Si 32.7 21.8 5.45
Si 34.0625 23.1625 6.8125
Si 32.7 24.525 8.175
Si 34.0625 25.8875 9.5375
Si 32.7 27.25 0
Si 32.7 27.25 5.45
Si 35.425 24.525 0
Si 36.7875 25.8875 1.3625
Si 35.425 21.8 2.725
Si 36.7875 23.1625 4.0875
Si 35.425 24.525 5.45
Si 36.7875 25.8875 6.8125
Si 35.425 21.8 8.175
Si 36.7875 23.1625 9.5375
Si 35.425 27.25 2.725
Si 35.425 27.25 8.175
Si 38.15 21.8 0
Si 39.5125 23.1625 1.3625
Si 40.875 24.525 0
Si 40.875 21.8 2.725
Si 38.15 24.525 2.725
Si 39.5125 25.8875 4.0875
Si 38.15 21.8 5.45
Si 39.5125 23.1625 6.8125
Si 40.875 24.525 5.45
Si 40.875 21.8 8.175
Si 38.15 24.525 8.175
Si 39.5125 25.8875 9.5375
Si 38.15 27.25 0
Si 40.875 27.25 2.725
Si 38.15 27.25 5.45
Si 40.875 27.25 8.175
Si 42.2375 25.8875 1.3625
Si 42.2375 23.1625 4.0875
Si 42.2375 25.8875 6.8125
Si 42.2375 23.1625 9.5375
Si 43.6 21.8 0
Si 44.9625 23.1625 1.3625
Si 46.325 24.525 0
Si 47.6875 25.8875 1.3625
Si 46.325 21.8 2.725
Si 47.6875 23.1625 4.0875
Si 43.6 24.525 2.725
Si 44.9625 25.8875 4.0875
Si 43.6 21.8 5.45
Si 44.9625 23.1625 6.8125
Si 46.325 24.525 5.45
Si 47.6875 25.8875 6.8125
Si 46.325 21.8 8.175
Si 47.6875 23.1625 9.5375
Si 43.6 24.525 8.175
Si 44.9625 25.8875 9.5375
Si 43.6 27.25 0
Si 46.325 27.25 2.725
Si 43.6 27.25 5.45
Si 46.325 27.25 8.175
Si 1.3625 28.6125 1.3625
Si 2.725 29.975 0
Si 4.0875 31.3375 1.3625
Si 4.0875 28.6125 4.0875
Si 0 29.975 2.725
Si 1.3625 31.3375 4.0875
Si 1.3625 28.6125 6.8125
Si 2.725 29.975 5.45
Si 4.0875 31.3375 6.8125
Si 4.0875 28.6125 9.5375
Si 0 29.975 8.175
Si 1.3625 31.3375 9.5375
Si 6.8125 28.6125 1.3625
Si 5.45 29.975 2.725
Si 6.8125 31.3375 4.0875
Si 6.8125 28.6125 6.8125
Si 5.45 29.975 8.175
Si 6.8125 31.3375 9.5375
Si 0 32.7 0
Si 1.3625 34.0625 1.3625
Si 2.725 32.7 2.725
Si 4.0875 34.0625 4.0875
Si 0 32.7 5.45
Si 1.3625 34.0625 6.8125
Si 2.725 32.7 8.175
Si 4.0875 34.0625 9.5375
Si 5.45 32.7 0
Si 6.8125 34.0625 1.3625
Si 5.45 32.7 5.45
Si 6.8125 34.0625 6.8125
Si 8.175 29.975 0
Si 9.5375 31.3375 1.3625
Si 9.5375 28.6125 4.0875
Si 8.175 29.975 5.45
Si 9.5375 31.3375 6.8125
Si 9.5375 28.6125 9.5375
Si 12.2625 28.6125 1.3625
Si 13.625 29.975 0
Si 10.9 29.975 2.725
Si 12.2625 31.3375 4.0875
Si 12.2625 28.6125 6.8125
Si 13.625 29.975 5.45
Si 10.9 29.975 8.175
Si 12.2625 31.3375 9.5375
Si 8.175 32.7 2.725
Si 9.5375 34.0625 4.0875
Si 8.175 32.7 8.175
Si 9.5375 34.0625 9.5375
Si 10.9 32.7 0
Si 12.2625 34.0625 1.3625
Si 13.625 32.7 2.725
Si 10.9 32.7 5.45
Si 12.2625 34.0625 6.8125
Si 13.625 32.7 8.175
Si 14.9875 31.3375 1.3625
Si 14.9875 28.6125 4.0875
Si 14.9875 31.3375 6.8125
Si 14.9875 28.6125 9.5375
Si 14.9875 34.0625 4.0875
Si 14.9875 34.0625 9.5375
Si 17.7125 28.6125 1.3625
Si 19.075 29.975 0
Si 20.4375 31.3375 1.3625
Si 20.4375 28.6125 4.0875
Si 16.35 29.975 2.725
Si 17.7125 31.3375 4.0875
Si 17.7125 28.6125 6.8125
Si 19.075 29.975 5.45
Si 20.4375 31.3375 6.8125
Si 20.4375 28.6125 9.5375
Si 16.35 29.975 8.175
Si 17.7125 31.3375 9.5375
Si 16.35 32.7 0
Si 17.7125 34.0625 1.3625
Si 19.075 32.7 2.725
Si 20.4375 34.0625 4.0875
Si 16.35 32.7 5.45
Si 17.7125 34.0625 6.8125
Si 19.075 32.7 8.175
Si 20.4375 34.0625 9.5375
Si 23.1625 28.6125 1.3625
Si 24.525 29.975 0
Si 25.8875 31.3375 1.3625
Si 25.8875 28.6125 4.0875
Si 21.8 29.975 2.725
Si 23.1625 31.3375 4.0875
Si 23.1625 28.6125 6.8125
Si 24.525 29.975 5.45
Si 25.8875 31.3375 6.8125
Si 25.8875 28.6125 9.5375
Si 21.8 29.975 8.175
Si 23.1625 31.3375 9.5375
Si 27.25 29.975 2.725
Si 27.25 29.975 8.175
Si 21.8 32.7 0
Si 23.1625 34.0625 1.3625
Si 24.525 32.7 2.725
Si 25.8875 34.0625 4.0875
Si 21.8 32.7 5.45
Si 23.1625 34.0625 6.8125
Si 24.525 32.7 8.175
Si 25.8875 34.0625 9.5375
Si 27.25 32.7 0
Si 27.25 32.7 5.45
Si 28.6125 28.6125 1.3625
Si 29.975 29.975 0
Si 31.3375 31.3375 1.3625
Si 31.3375 28.6125 4.0875
Si 28.6125 31.3375 4.0875
Si 28.6125 28.6125 6.8125
Si 29.975 29.975 5.45
Si 31.3375 31.3375 6.8125
Si 31.3375 28.6125 9.5375
Si 28.6125 31.3375 9.5375
Si 28.6125 34.0625 1.3625
Si 29.975 32.7 2.725
Si 31.3375 34.0625 4.0875
Si 28.6125 34.0625 6.8125
Si 29.975 32.7 8.175
Si 31.3375 34.0625 9.5375
Si 34.0625 28.6125 1.3625
Si 32.7 29.975 2.725
Si 34.0625 31.3375 4.0875
Si 34.0625 28.6125 6.8125
Si 32.7 29.975 8.175
Si 34.0625 31.3375 9.5375
Si 32.7 32.7 0
Si 34.0625 34.0625 1.3625
Si 32.7 32.7 5.45
Si 34.0625 34.0625 6.8125
Si 35.425 29.975 0
Si 36.7875 31.3375 1.3625
Si 36.7875 28.6125 4.0875
Si 35.425 29.975 5.45
Si 36.7875 31.3375 6.8125
Si 36.7875 28.6125 9.5375
Si 39.5125 28.6125 1.3625
Si 40.875 29.975 0
Si 38.15 29.975 2.725
Si 39.5125 31.3375 4.0875
Si 39.5125 28.6125 6.8125
Si 40.875 29.975 5.45
Si 38.15 29.975 8.175
Si 39.5125 31.3375 9.5375
Si 35.425 32.7 2.725
Si 36.7875 34.0625 4.0875
Si 35.425 32.7 8.175
Si 36.7875 34.0625 9.5375
Si 38.15 32.7 0
Si 39.5125 34.0625 1.3625
Si 40.875 32.7 2.725
Si 38.15 32.7 5.45
Si 39.5125 34.0625 6.8125
Si 40.875 32.7 8.175
O 39.2566 29.2949 10.4248
Si 42.2375 31.3375 1.3625
Si 42.2375 28.6125 4.0875
Si 42.2375 31.3375 6.8125
Si 42.2375 28.6125 9.5375
Si 44.9625 28.6125 1.3625
Si 46.325 29.975 0
Si 47.6875 31.3375 1.3625
Si 47.6875 28.6125 4.0875
Si 43.6 29.975 2.725
Si 44.9625 31.3375 4.0875
Si 44.9625 28.6125 6.8125
Si 46.325 29.975 5.45
Si 47.6875 31.3375 6.8125
Si 47.6875 28.6125 9.5375
Si 43.6 29.975 8.175
Si 44.9625 31.3375 9.5375
Si 42.2375 34.0625 4.0875
Si 42.2375 34.0625 9.5375
Si 43.6 32.7 0
Si 44.9625 34.0625 1.3625
Si 46.325 32.7 2.725
Si 47.6875 34.0625 4.0875
Si 43.6 32.7 5.45
Si 44.9625 34.0625 6.8125
Si 46.325 32.7 8.175
Si 47.6875 34.0625 9.5375
Si 2.725 35.425 0
Si 4.0875 36.7875 1.3625
Si 0 35.425 2.725
Si 1.3625 36.7875 4.0875
Si 2.725 35.425 5.45
Si 4.0875 36.7875 6.8125
Si 0 35.425 8.175
Si 1.3625 36.7875 9.5375
Si 0 38.15 0
Si 1.3625 39.5125 1.3625
Si 2.725 40.875 0
Si 2.725 38.15 2.725
Si 4.0875 39.5125 4.0875
Si 0 40.875 2.725
Si 0 38.15 5.45
Si 1.3625 39.5125 6.8125
Si 2.725 40.875 5.45
Si 2.725 38.15 8.175
Si 4.0875 39.5125 9.5375
Si 0 40.875 8.175
Si 5.45 35.425 2.725
Si 6.8125 36.7875 4.0875
Si 5.45 35.425 8.175
Si 6.8125 36.7875 9.5375
Si 5.45 38.15 0
Si 6.8125 39.5125 1.3625
Si 5.45 40.875 2.725
Si 5.45 38.15 5.45
Si 6.8125 39.5125 6.8125
Si 5.45 40.875 8.175
Si 8.175 35.425 0
Si 9.5375 36.7875 1.3625
Si 8.175 35.425 5.45
Si 9.5375 36.7875 6.8125
Si 8.175 40.875 0
Si 8.175 38.15 2.725
Si 9.5375 39.5125 4.0875
Si 8.175 40.875 5.45
Si 8.175 38.15 8.175
Si 9.5375 39.5125 9.5375
Si 13.625 35.425 0
Si 10.9 35.425 2.725
Si 12.2625 36.7875 4.0875
Si 13.625 35.425 5.45
Si 10.9 35.425 8.175
Si 12.2625 36.7875 9.5375
Si 10.9 38.15 0
Si 12.2625 39.5125 1.3625
Si 13.625 40.875 0
Si 13.625 38.15 2.725
Si 10.9 40.875 2.725
Si 10.9 38.15 5.45
Si 12.2625 39.5125 6.8125
Si 13.625 40.875 5.45
Si 13.625 38.15 8.175
Si 10.9 40.875 8.175
Si 14.9875 36.7875 1.3625
Si 14.9875 36.7875 6.8125
Si 14.9875 39.5125 4.0875
Si 14.9875 39.5125 9.5375
Si 19.075 35.425 0
Si 20.4375 36.7875 1.3625
Si 16.35 35.425 2.725
Si 17.7125 36.7875 4.0875
Si 19.075 35.425 5.45
Si 20.4375 36.7875 6.8125
Si 16.35 35.425 8.175
Si 17.7125 36.7875 9.5375
Si 16.35 38.15 0
Si 17.7125 39.5125 1.3625
Si 19.075 40.875 0
Si 19.075 38.15 2.725
Si 20.4375 39.5125 4.0875
Si 16.35 40.875 2.725
Si 16.35 38.15 5.45
Si 17.7125 39.5125 6.8125
Si 19.075 40.875 5.45
Si 19.075 38.15 8.175
Si 20.4375 39.5125 9.5375
Si 16.35 40.875 8.175
Si 24.525 35.425 0
Si 25.8875 36.7875 1.3625
Si 21.8 35.425 2.725
Si 23.1625 36.7875 4.0875
Si 24.525 35.425 5.45
Si 25.8875 36.7875 6.8125
Si 21.8 35.425 8.175
Si 23.1625 36.7875 9.5375
Si 21.8 38.15 0
Si 23.1625 39.5125 1.3625
Si 24.525 40.875 0
Si 24.525 38.15 2.725
Si 25.8875 39.5125 4.0875
Si 21.8 40.875 2.725
Si 21.8 38.15 5.45
Si 23.1625 39.5125 6.8125
Si 24.525 40.875 5.45
Si 24.525 38.15 8.175
Si 25.8875 39.5125 9.5375
Si 21.8 40.875 8.175
Si 27.25 35.425 2.725
Si 27.25 35.425 8.175
Si 27.25 38.15 0
Si 27.25 40.875 2.725
Si 27.25 38.15 5.45
Si 27.25 40.875 8.175
Si 29.975 35.425 0
Si 31.3375 36.7875 1.3625
Si 28.6125 36.7875 4.0875
Si 29.975 35.425 5.45
Si 31.3375 36.7875 6.8125
Si 28.6125 36.7875 9.5375
Si 28.6125 39.5125 1.3625
Si 29.975 40.875 0
Si 29.975 38.15 2.725
Si 31.3375 39.5125 4.0875
Si 28.6125 39.5125 6.8125
Si 29.975 40.875 5.45
Si 29.975 38.15 8.175
Si 31.3375 39.5125 9.5375
Si 32.7 35.425 2.725
Si 34.0625 36.7875 4.0875
Si 32.7 35.425 8.175
Si 34.0625 36.7875 9.5375
Si 32.7 38.15 0
Si 34.0625 39.5125 1.3625
Si 32.7 40.875 2.725
Si 32.7 38.15 5.45
Si 34.0625 39.5125 6.8125
Si 32.7 40.875 8.175
Si 35.425 35.425 0
Si 36.7875 36.7875 1.3625
Si 35.425 35.425 5.45
Si 36.7875 36.7875 6.8125
Si 35.425 40.875 0
Si 35.425 38.15 2.725
Si 36.7875 39.5125 4.0875
Si 35.425 40.875 5.45
Si 35.425 38.15 8.175
Si 36.7875 39.5125 9.5375
Si 40.875 35.425 0
Si 38.15 35.425 2.725
Si 39.5125 36.7875 4.0875
Si 40.875 35.425 5.45
Si 38.15 35.425 8.175
Si 39.5125 36.7875 9.5375
Si 38.15 38.15 0
Si 39.5125 39.5125 1.3625
Si 40.875 40.875 0
Si 40.875 38.15 2.725
Si 38.15 40.875 2.725
Si 38.15 38.15 5.45
Si 39.5125 39.5125 6.8125
Si 40.875 40.875 5.45
Si 40.875 38.15 8.175
Si 38.15 40.875 8.175
Si 42.2375 36.7875 1.3625
Si 42.2375 36.7875 6.8125
Si 42.2375 39.5125 4.0875
Si 42.2375 39.5125 9.5375
Si 46.325 35.425 0
Si 47.6875 36.7875 1.3625
Si 43.6 35.425 2.725
Si 44.9625 36.7875 4.0875
Si 46.325 35.425 5.45
Si 47.6875 36.7875 6.8125
Si 43.6 35.425 8.175
Si 44.9625 36.7875 9.5375
Si 43.6 38.15 0
Si 44.9625 39.5125 1.3625
Si 46.325 40.875 0
Si 46.325 38.15 2.725
Si 47.6875 39.5125 4.0875
Si 43.6 40.875 2.725
Si 43.6 38.15 5.45
Si 44.9625 39.5125 6.8125
Si 46.325 40.875 5.45
Si 46.325 38.15 8.175
Si 47.6875 39.5125 9.5375
Si 43.6 40.875 8.175
Si 4.0875 42.2375 1.3625
Si 1.3625 42.2375 4.0875
Si 4.0875 42.2375 6.8125
Si 1.3625 42.2375 9.5375
Si 0 43.6 0
Si 1.3625 44.9625 1.3625
Si 2.725 46.325 0
Si 4.0875 47.6875 1.3625
Si 2.725 43.6 2.725
Si 4.0875 44.9625 4.0875
Si 0 46.325 2.725
Si 1.3625 47.6875 4.0875
Si 0 43.6 5.45
Si 1.3625 44.9625 6.8125
Si 2.725 46.325 5.45
Si 4.0875 47.6875 6.8125
Si 2.725 43.6 8.175
Si 4.0875 44.9625 9.5375
Si 0 46.325 8.175
Si 1.3625 47.6875 9.5375
Si 6.8125 42.2375 4.0875
Si 6.8125 42.2375 9.5375
Si 5.45 43.6 0
Si 6.8125 44.9625 1.3625
Si 5.45 46.325 2.725
Si 6.8125 47.6875 4.0875
Si 5.45 43.6 5.45
Si 6.8125 44.9625 6.8125
Si 5.45 46.325 8.175
Si 6.8125 47.6875 9.5375
Si 9.5375 42.2375 1.3625
Si 9.5375 42.2375 6.8125
Si 8.175 46.325 0
Si 9.5375 47.6875 1.3625
Si 8.175 43.6 2.725
Si 9.5375 44.9625 4.0875
Si 8.175 46.325 5.45
Si 9.5375 47.6875 6.8125
Si 8.175 43.6 8.175
Si 9.5375 44.9625 9.5375
Si 12.2625 42.2375 4.0875
Si 12.2625 42.2375 9.5375
Si 10.9 43.6 0
Si 12.2625 44.9625 1.3625
Si 13.625 46.325 0
Si 13.625 43.6 2.725
Si 10.9 46.325 2.725
Si 12.2625 47.6875 4.0875
Si 10.9 43.6 5.45
Si 12.2625 44.9625 6.8125
Si 13.625 46.325 5.45
Si 13.625 43.6 8.175
Si 10.9 46.325 8.175
Si 12.2625 47.6875 9.5375
Si 14.9875 42.2375 1.3625
Si 14.9875 42.2375 6.8125
Si 14.9875 47.6875 1.3625
Si 14.9875 44.9625 4.0875
Si 14.9875 47.6875 6.8125
Si 14.9875 44.9625 9.5375
Si 20.4375 42.2375 1.3625
Si 17.7125 42.2375 4.0875
Si 20.4375 42.2375 6.8125
Si 17.7125 42.2375 9.5375
Si 16.35 43.6 0
Si 17.7125 44.9625 1.3625
Si 19.075 46.325 0
Si 20.4375 47.6875 1.3625
Si 19.075 43.6 2.725
Si 20.4375 44.9625 4.0875
Si 16.35 46.325 2.725
Si 17.7125 47.6875 4.0875
Si 16.35 43.6 5.45
Si 17.7125 44.9625 6.8125
Si 19.075 46.325 5.45
Si 20.4375 47.6875 6.8125
Si 19.075 43.6 8.175
Si 20.4375 44.9625 9.5375
Si 16.35 46.325 8.175
Si 17.7125 47.6875 9.5375
Si 25.8875 42.2375 1.3625
Si 23.1625 42.2375 4.0875
Si 25.8875 42.2375 6.8125
Si 23.1625 42.2375 9.5375
Si 21.8 43.6 0
Si 23.1625 44.9625 1.3625
Si 24.525 46.325 0
Si 25.8875 47.6875 1.3625
Si 24.525 43.6 2.725
Si 25.8875 44.9625 4.0875
Si 21.8 46.325 2.725
Si 23.1625 47.6875 4.0875
Si 21.8 43.6 5.45
Si 23.1625 44.9625 6.8125
Si 24.525 46.325 5.45
Si 25.8875 47.6875 6.8125
Si 24.525 43.6 8.175
Si 25.8875 44.9625 9.5375
Si 21.8 46.325 8.175
Si 23.1625 47.6875 9.5375
Si 27.25 43.6 0
Si 27.25 46.325 2.725
Si 27.25 43.6 5.45
Si 27.25 46.325 8.175
Si 31.3375 42.2375 1.3625
Si 28.6125 42.2375 4.0875
Si 31.3375 42.2375 6.8125
Si 28.6125 42.2375 9.5375
Si 28.6125 44.9625 1.3625
Si 29.975 46.325 0
Si 31.3375 47.6875 1.3625
Si 29.975 43.6 2.725
Si 31.3375 44.9625 4.0875
Si 28.6125 47.6875 4.0875
Si 28.6125 44.9625 6.8125
Si 29.975 46.325 5.45
Si 31.3375 47.6875 6.8125
Si 29.975 43.6 8.175
Si 31.3375 44.9625 9.5375
Si 28.6125 47.6875 9.5375
Si 34.0625 42.2375 4.0875
Si 34.0625 42.2375 9.5375
Si 32.7 43.6 0
Si 34.0625 44.9625 1.3625
Si 32.7 46.325 2.725
Si 34.0625 47.6875 4.0875
Si 32.7 43.6 5.45
Si 34.0625 44.9625 6.8125
Si 32.7 46.325 8.175
Si 34.0625 47.6875 9.5375
Si 36.7875 42.2375 1.3625
Si 36.7875 42.2375 6.8125
Si 35.425 46.325 0
Si 36.7875 47.6875 1.3625
Si 35.425 43.6 2.725
Si 36.7875 44.9625 4.0875
Si 35.425 46.325 5.45
Si 36.7875 47.6875 6.8125
Si 35.425 43.6 8.175
Si 36.7875 44.9625 9.5375
Si 39.5125 42.2375 4.0875
Si 39.5125 42.2375 9.5375
Si 38.15 43.6 0
Si 39.5125 44.9625 1.3625
Si 40.875 46.325 0
Si 40.875 43.6 2.725
Si 38.15 46.325 2.725
Si 39.5125 47.6875 4.0875
Si 38.15 43.6 5.45
Si 39.5125 44.9625 6.8125
Si 40.875 46.325 5.45
Si 40.875 43.6 8.175
Si 38.15 46.325 8.175
Si 39.5125 47.6875 9.5375
Si 42.2375 42.2375 1.3625
Si 42.2375 42.2375 6.8125
Si 42.2375 47.6875 1.3625
Si 42.2375 44.9625 4.0875
Si 42.2375 47.6875 6.8125
Si 42.2375 44.9625 9.5375
Si 47.6875 42.2375 1.3625
Si 44.9625 42.2375 4.0875
Si 47.6875 42.2375 6.8125
Si 44.9625 42.2375 9.5375
Si 43.6 43.6 0
Si 44.9625 44.9625 1.3625
Si 46.325 46.325 0
Si 47.6875 47.6875 1.3625
Si 46.325 43.6 2.725
Si 47.6875 44.9625 4.0875
Si 43.6 46.325 2.725
Si 44.9625 47.6875 4.0875
Si 43.6 43.6 5.45
Si 44.9625 44.9625 6.8125
Si 46.325 46.325 5.45
Si 47.6875 47.6875 6.8125
Si 46.325 43.6 8.175
Si 47.6875 44.9625 9.5375
Si 43.6 46.325 8.175
Si 44.9625 47.6875 9.5375
O 15.7164 6.98374 13.4283
O 30.5935 0.0495323 10.502
O 43.8882 1.75105 12.106
O 43.0991 2.08457 11.2013
O 4.6982 8.51918 12.1521
O 3.796 9.37548 12.0802
O 12.5224 13.0318 13.7009
O 13.2061 13.7353 12.9327
O 15.6857 8.00909 14.1354
O 19.3939 7.18523 12.8108
O 19.2534 7.90054 11.8003
O 21.5261 13.4069 10.5976
O 10.402 17.1763 12.4676
O 10.6298 16.1095 13.0697
O 26.2946 17.0517 11.0776
O 25.2133 16.4695 11.2879
O 38.4043 19.4065 14.8871
O 39.3849 19.0562 14.2029
O 3.52254 21.4219 13.9553
O 4.49561 22.1573 14.2097
O 13.4297 27.7019 12.314
O 19.5799 26.7676 11.5601
O 18.6818 26.5664 12.3999
O 18.4178 22.2348 15.1795
O 19.3439 21.5947 14.6456
O 10.1914 32.6017 11.7184